 TITLE="TECPLOT input file: Breakthrough Curves" 
 VARIABLES="Time" "Concentrations" 
ZONE T= "Xw:     39.9300      Yw:     22.4100      Rw:    0.500000      Zwbot:     15.5000      Zwtop:     18.0000       Specie:  1 "
 0.10555500000000       9.5466666666671    
  4.3055550000000       8.1104761904765    
  8.5055550000000       7.8057142857145    
  12.705555000000       7.8666666666669    
  16.905555000000       6.8266666666668    
  21.105555000000       15.721904761906    
  25.305555000000       6.8685714285716    
  29.505555000000       16.243809523810    
  33.705555000000       14.693333333334    
  37.905555000000       14.201904761906    
  42.105555000000       10.986666666667    
  46.305555000000       10.350476190477    
  50.505555000000       10.400000000000    
  54.705555000000       6.2590476190477    
  58.905555000000       8.6285714285718    
  63.105555000000       9.2761904761909    
  67.305555000000       14.628571428572    
  71.505555000000       6.8914285714288    
  75.705555000000       10.537142857143    
  79.905555000000       10.175238095239    
  84.105555000000       6.2514285714287    
  88.305555000000       9.7561904761909    
  92.505555000000       6.2971428571430    
  96.705555000000       8.3200000000003    
  100.90555500000       8.1180952380955    
  105.10555500000       5.2114285714286    
  109.30555500000       6.4419047619049    
  113.50555500000       4.0914285714285    
  117.70555500000       5.0514285714286    
  121.90555500000       4.5752380952381    
  126.10555500000       2.7314285714285    
  130.30555500000       3.5428571428571    
  134.50555500000       2.5904761904761    
  138.70555500000       3.8361904761904    
  142.90555500000       3.3180952380952    
  147.10555500000       2.0190476190476    
  151.30555500000       3.1047619047619    
  155.50555500000       1.6457142857143    
ZONE T= "Xw:     39.9300      Yw:     22.4100      Rw:    0.500000      Zwbot:     15.5000      Zwtop:     18.0000       Specie:  2 "
  0.0000000000000       0.0000000000000    
  0.0000000000000       0.0000000000000    
  0.0000000000000       0.0000000000000    
  0.0000000000000       0.0000000000000    
  0.0000000000000       0.0000000000000    
  0.0000000000000       0.0000000000000    
  0.0000000000000       0.0000000000000    
  0.0000000000000       0.0000000000000    
  0.0000000000000       0.0000000000000    
  0.0000000000000       0.0000000000000    
  0.0000000000000       0.0000000000000    
  0.0000000000000       0.0000000000000    
  0.0000000000000       0.0000000000000    
  0.0000000000000       0.0000000000000    
  0.0000000000000       0.0000000000000    
  0.0000000000000       0.0000000000000    
  0.0000000000000       0.0000000000000    
  0.0000000000000       0.0000000000000    
  0.0000000000000       0.0000000000000    
  0.0000000000000       0.0000000000000    
  0.0000000000000       0.0000000000000    
  0.0000000000000       0.0000000000000    
  0.0000000000000       0.0000000000000    
  0.0000000000000       0.0000000000000    
  0.0000000000000       0.0000000000000    
  0.0000000000000       0.0000000000000    
  0.0000000000000       0.0000000000000    
  0.0000000000000       0.0000000000000    
  0.0000000000000       0.0000000000000    
  0.0000000000000       0.0000000000000    
  0.0000000000000       0.0000000000000    
  0.0000000000000       0.0000000000000    
  0.0000000000000       0.0000000000000    
  0.0000000000000       0.0000000000000    
  0.0000000000000       0.0000000000000    
  0.0000000000000       0.0000000000000    
  0.0000000000000       0.0000000000000    
  0.0000000000000       0.0000000000000    
ZONE T= "Xw:     39.9300      Yw:     22.4100      Rw:    0.500000      Zwbot:     15.5000      Zwtop:     18.0000       Specie:  3 "
  0.0000000000000       0.0000000000000    
  0.0000000000000       0.0000000000000    
  0.0000000000000       0.0000000000000    
  0.0000000000000       0.0000000000000    
  0.0000000000000       0.0000000000000    
  0.0000000000000       0.0000000000000    
  0.0000000000000       0.0000000000000    
  0.0000000000000       0.0000000000000    
  0.0000000000000       0.0000000000000    
  0.0000000000000       0.0000000000000    
  0.0000000000000       0.0000000000000    
  0.0000000000000       0.0000000000000    
  0.0000000000000       0.0000000000000    
  0.0000000000000       0.0000000000000    
  0.0000000000000       0.0000000000000    
  0.0000000000000       0.0000000000000    
  0.0000000000000       0.0000000000000    
  0.0000000000000       0.0000000000000    
  0.0000000000000       0.0000000000000    
  0.0000000000000       0.0000000000000    
  0.0000000000000       0.0000000000000    
  0.0000000000000       0.0000000000000    
  0.0000000000000       0.0000000000000    
  0.0000000000000       0.0000000000000    
  0.0000000000000       0.0000000000000    
  0.0000000000000       0.0000000000000    
  0.0000000000000       0.0000000000000    
  0.0000000000000       0.0000000000000    
  0.0000000000000       0.0000000000000    
  0.0000000000000       0.0000000000000    
  0.0000000000000       0.0000000000000    
  0.0000000000000       0.0000000000000    
  0.0000000000000       0.0000000000000    
  0.0000000000000       0.0000000000000    
  0.0000000000000       0.0000000000000    
  0.0000000000000       0.0000000000000    
  0.0000000000000       0.0000000000000    
  0.0000000000000       0.0000000000000    
ZONE T= "Xw:     39.9300      Yw:     22.4100      Rw:    0.500000      Zwbot:     15.5000      Zwtop:     18.0000       Specie:  4 "
 0.10555500000000       0.0000000000000    
  4.3055550000000       0.0000000000000    
  8.5055550000000       0.0000000000000    
  12.705555000000       0.0000000000000    
  16.905555000000       0.0000000000000    
  21.105555000000       0.0000000000000    
  25.305555000000       0.0000000000000    
  29.505555000000       0.0000000000000    
  33.705555000000       0.0000000000000    
  37.905555000000       0.0000000000000    
  42.105555000000      0.38095238095238E-02
  46.305555000000      0.11428571428571E-01
  50.505555000000       0.0000000000000    
  54.705555000000       0.0000000000000    
  58.905555000000      0.15238095238095E-01
  63.105555000000       0.0000000000000    
  67.305555000000       0.0000000000000    
  71.505555000000       0.0000000000000    
  75.705555000000       0.0000000000000    
  79.905555000000      0.22857142857143E-01
  84.105555000000       0.0000000000000    
  88.305555000000      0.26666666666667E-01
  92.505555000000      0.15238095238095E-01
  96.705555000000      0.38095238095238E-02
  100.90555500000      0.19047619047619E-01
  105.10555500000      0.38095238095238E-02
  109.30555500000       0.0000000000000    
  113.50555500000      0.76190476190476E-02
  117.70555500000      0.34285714285714E-01
  121.90555500000      0.19047619047619E-01
  126.10555500000       0.0000000000000    
  130.30555500000      0.38095238095238E-01
  134.50555500000       0.0000000000000    
  138.70555500000       0.0000000000000    
  142.90555500000       0.0000000000000    
  147.10555500000       0.0000000000000    
  151.30555500000       0.0000000000000    
  155.50555500000       0.0000000000000    
ZONE T= "Xw:     39.9300      Yw:     22.4100      Rw:    0.500000      Zwbot:     15.5000      Zwtop:     18.0000       Specie:  5 "
  0.0000000000000       0.0000000000000    
  0.0000000000000       0.0000000000000    
  0.0000000000000       0.0000000000000    
  0.0000000000000       0.0000000000000    
  0.0000000000000       0.0000000000000    
  0.0000000000000       0.0000000000000    
  0.0000000000000       0.0000000000000    
  0.0000000000000       0.0000000000000    
  0.0000000000000       0.0000000000000    
  0.0000000000000       0.0000000000000    
  0.0000000000000       0.0000000000000    
  0.0000000000000       0.0000000000000    
  0.0000000000000       0.0000000000000    
  0.0000000000000       0.0000000000000    
  0.0000000000000       0.0000000000000    
  0.0000000000000       0.0000000000000    
  0.0000000000000       0.0000000000000    
  0.0000000000000       0.0000000000000    
  0.0000000000000       0.0000000000000    
  0.0000000000000       0.0000000000000    
  0.0000000000000       0.0000000000000    
  0.0000000000000       0.0000000000000    
  0.0000000000000       0.0000000000000    
  0.0000000000000       0.0000000000000    
  0.0000000000000       0.0000000000000    
  0.0000000000000       0.0000000000000    
  0.0000000000000       0.0000000000000    
  0.0000000000000       0.0000000000000    
  0.0000000000000       0.0000000000000    
  0.0000000000000       0.0000000000000    
  0.0000000000000       0.0000000000000    
  0.0000000000000       0.0000000000000    
  0.0000000000000       0.0000000000000    
  0.0000000000000       0.0000000000000    
  0.0000000000000       0.0000000000000    
  0.0000000000000       0.0000000000000    
  0.0000000000000       0.0000000000000    
  0.0000000000000       0.0000000000000    
ZONE T= "Xw:     39.9300      Yw:     22.4100      Rw:    0.500000      Zwbot:     15.5000      Zwtop:     18.0000       Specie:  6 "
  0.0000000000000       0.0000000000000    
  0.0000000000000       0.0000000000000    
  0.0000000000000       0.0000000000000    
  0.0000000000000       0.0000000000000    
  0.0000000000000       0.0000000000000    
  0.0000000000000       0.0000000000000    
  0.0000000000000       0.0000000000000    
  0.0000000000000       0.0000000000000    
  0.0000000000000       0.0000000000000    
  0.0000000000000       0.0000000000000    
  0.0000000000000       0.0000000000000    
  0.0000000000000       0.0000000000000    
  0.0000000000000       0.0000000000000    
  0.0000000000000       0.0000000000000    
  0.0000000000000       0.0000000000000    
  0.0000000000000       0.0000000000000    
  0.0000000000000       0.0000000000000    
  0.0000000000000       0.0000000000000    
  0.0000000000000       0.0000000000000    
  0.0000000000000       0.0000000000000    
  0.0000000000000       0.0000000000000    
  0.0000000000000       0.0000000000000    
  0.0000000000000       0.0000000000000    
  0.0000000000000       0.0000000000000    
  0.0000000000000       0.0000000000000    
  0.0000000000000       0.0000000000000    
  0.0000000000000       0.0000000000000    
  0.0000000000000       0.0000000000000    
  0.0000000000000       0.0000000000000    
  0.0000000000000       0.0000000000000    
  0.0000000000000       0.0000000000000    
  0.0000000000000       0.0000000000000    
  0.0000000000000       0.0000000000000    
  0.0000000000000       0.0000000000000    
  0.0000000000000       0.0000000000000    
  0.0000000000000       0.0000000000000    
  0.0000000000000       0.0000000000000    
  0.0000000000000       0.0000000000000    
ZONE T= "Xw:     39.9300      Yw:     22.4100      Rw:    0.500000      Zwbot:     15.5000      Zwtop:     18.0000       Specie:  7 "
  0.0000000000000       0.0000000000000    
  0.0000000000000       0.0000000000000    
  0.0000000000000       0.0000000000000    
  0.0000000000000       0.0000000000000    
  0.0000000000000       0.0000000000000    
  0.0000000000000       0.0000000000000    
  0.0000000000000       0.0000000000000    
  0.0000000000000       0.0000000000000    
  0.0000000000000       0.0000000000000    
  0.0000000000000       0.0000000000000    
  0.0000000000000       0.0000000000000    
  0.0000000000000       0.0000000000000    
  0.0000000000000       0.0000000000000    
  0.0000000000000       0.0000000000000    
  0.0000000000000       0.0000000000000    
  0.0000000000000       0.0000000000000    
  0.0000000000000       0.0000000000000    
  0.0000000000000       0.0000000000000    
  0.0000000000000       0.0000000000000    
  0.0000000000000       0.0000000000000    
  0.0000000000000       0.0000000000000    
  0.0000000000000       0.0000000000000    
  0.0000000000000       0.0000000000000    
  0.0000000000000       0.0000000000000    
  0.0000000000000       0.0000000000000    
  0.0000000000000       0.0000000000000    
  0.0000000000000       0.0000000000000    
  0.0000000000000       0.0000000000000    
  0.0000000000000       0.0000000000000    
  0.0000000000000       0.0000000000000    
  0.0000000000000       0.0000000000000    
  0.0000000000000       0.0000000000000    
  0.0000000000000       0.0000000000000    
  0.0000000000000       0.0000000000000    
  0.0000000000000       0.0000000000000    
  0.0000000000000       0.0000000000000    
  0.0000000000000       0.0000000000000    
  0.0000000000000       0.0000000000000    
ZONE T= "Xw:     39.9300      Yw:     22.4100      Rw:    0.500000      Zwbot:     15.5000      Zwtop:     18.0000       Specie:  8 "
  0.0000000000000       0.0000000000000    
  0.0000000000000       0.0000000000000    
  0.0000000000000       0.0000000000000    
  0.0000000000000       0.0000000000000    
  0.0000000000000       0.0000000000000    
  0.0000000000000       0.0000000000000    
  0.0000000000000       0.0000000000000    
  0.0000000000000       0.0000000000000    
  0.0000000000000       0.0000000000000    
  0.0000000000000       0.0000000000000    
  0.0000000000000       0.0000000000000    
  0.0000000000000       0.0000000000000    
  0.0000000000000       0.0000000000000    
  0.0000000000000       0.0000000000000    
  0.0000000000000       0.0000000000000    
  0.0000000000000       0.0000000000000    
  0.0000000000000       0.0000000000000    
  0.0000000000000       0.0000000000000    
  0.0000000000000       0.0000000000000    
  0.0000000000000       0.0000000000000    
  0.0000000000000       0.0000000000000    
  0.0000000000000       0.0000000000000    
  0.0000000000000       0.0000000000000    
  0.0000000000000       0.0000000000000    
  0.0000000000000       0.0000000000000    
  0.0000000000000       0.0000000000000    
  0.0000000000000       0.0000000000000    
  0.0000000000000       0.0000000000000    
  0.0000000000000       0.0000000000000    
  0.0000000000000       0.0000000000000    
  0.0000000000000       0.0000000000000    
  0.0000000000000       0.0000000000000    
  0.0000000000000       0.0000000000000    
  0.0000000000000       0.0000000000000    
  0.0000000000000       0.0000000000000    
  0.0000000000000       0.0000000000000    
  0.0000000000000       0.0000000000000    
  0.0000000000000       0.0000000000000    
ZONE T= "Xw:     39.9300      Yw:     22.4100      Rw:    0.500000      Zwbot:     15.5000      Zwtop:     18.0000       Specie:  9 "
  0.0000000000000       0.0000000000000    
  0.0000000000000       0.0000000000000    
  0.0000000000000       0.0000000000000    
  0.0000000000000       0.0000000000000    
  0.0000000000000       0.0000000000000    
  0.0000000000000       0.0000000000000    
  0.0000000000000       0.0000000000000    
  0.0000000000000       0.0000000000000    
  0.0000000000000       0.0000000000000    
  0.0000000000000       0.0000000000000    
  0.0000000000000       0.0000000000000    
  0.0000000000000       0.0000000000000    
  0.0000000000000       0.0000000000000    
  0.0000000000000       0.0000000000000    
  0.0000000000000       0.0000000000000    
  0.0000000000000       0.0000000000000    
  0.0000000000000       0.0000000000000    
  0.0000000000000       0.0000000000000    
  0.0000000000000       0.0000000000000    
  0.0000000000000       0.0000000000000    
  0.0000000000000       0.0000000000000    
  0.0000000000000       0.0000000000000    
  0.0000000000000       0.0000000000000    
  0.0000000000000       0.0000000000000    
  0.0000000000000       0.0000000000000    
  0.0000000000000       0.0000000000000    
  0.0000000000000       0.0000000000000    
  0.0000000000000       0.0000000000000    
  0.0000000000000       0.0000000000000    
  0.0000000000000       0.0000000000000    
  0.0000000000000       0.0000000000000    
  0.0000000000000       0.0000000000000    
  0.0000000000000       0.0000000000000    
  0.0000000000000       0.0000000000000    
  0.0000000000000       0.0000000000000    
  0.0000000000000       0.0000000000000    
  0.0000000000000       0.0000000000000    
  0.0000000000000       0.0000000000000    
ZONE T= "Xw:     39.9300      Yw:     22.4100      Rw:    0.500000      Zwbot:     15.5000      Zwtop:     18.0000       Specie: 10 "
  0.0000000000000       0.0000000000000    
  0.0000000000000       0.0000000000000    
  0.0000000000000       0.0000000000000    
  0.0000000000000       0.0000000000000    
  0.0000000000000       0.0000000000000    
  0.0000000000000       0.0000000000000    
  0.0000000000000       0.0000000000000    
  0.0000000000000       0.0000000000000    
  0.0000000000000       0.0000000000000    
  0.0000000000000       0.0000000000000    
  0.0000000000000       0.0000000000000    
  0.0000000000000       0.0000000000000    
  0.0000000000000       0.0000000000000    
  0.0000000000000       0.0000000000000    
  0.0000000000000       0.0000000000000    
  0.0000000000000       0.0000000000000    
  0.0000000000000       0.0000000000000    
  0.0000000000000       0.0000000000000    
  0.0000000000000       0.0000000000000    
  0.0000000000000       0.0000000000000    
  0.0000000000000       0.0000000000000    
  0.0000000000000       0.0000000000000    
  0.0000000000000       0.0000000000000    
  0.0000000000000       0.0000000000000    
  0.0000000000000       0.0000000000000    
  0.0000000000000       0.0000000000000    
  0.0000000000000       0.0000000000000    
  0.0000000000000       0.0000000000000    
  0.0000000000000       0.0000000000000    
  0.0000000000000       0.0000000000000    
  0.0000000000000       0.0000000000000    
  0.0000000000000       0.0000000000000    
  0.0000000000000       0.0000000000000    
  0.0000000000000       0.0000000000000    
  0.0000000000000       0.0000000000000    
  0.0000000000000       0.0000000000000    
  0.0000000000000       0.0000000000000    
  0.0000000000000       0.0000000000000    
ZONE T= "Xw:     39.9300      Yw:     22.4100      Rw:    0.500000      Zwbot:     15.5000      Zwtop:     18.0000       Specie: 11 "
  0.0000000000000       0.0000000000000    
  0.0000000000000       0.0000000000000    
  0.0000000000000       0.0000000000000    
  0.0000000000000       0.0000000000000    
  0.0000000000000       0.0000000000000    
  0.0000000000000       0.0000000000000    
  0.0000000000000       0.0000000000000    
  0.0000000000000       0.0000000000000    
  0.0000000000000       0.0000000000000    
  0.0000000000000       0.0000000000000    
  0.0000000000000       0.0000000000000    
  0.0000000000000       0.0000000000000    
  0.0000000000000       0.0000000000000    
  0.0000000000000       0.0000000000000    
  0.0000000000000       0.0000000000000    
  0.0000000000000       0.0000000000000    
  0.0000000000000       0.0000000000000    
  0.0000000000000       0.0000000000000    
  0.0000000000000       0.0000000000000    
  0.0000000000000       0.0000000000000    
  0.0000000000000       0.0000000000000    
  0.0000000000000       0.0000000000000    
  0.0000000000000       0.0000000000000    
  0.0000000000000       0.0000000000000    
  0.0000000000000       0.0000000000000    
  0.0000000000000       0.0000000000000    
  0.0000000000000       0.0000000000000    
  0.0000000000000       0.0000000000000    
  0.0000000000000       0.0000000000000    
  0.0000000000000       0.0000000000000    
  0.0000000000000       0.0000000000000    
  0.0000000000000       0.0000000000000    
  0.0000000000000       0.0000000000000    
  0.0000000000000       0.0000000000000    
  0.0000000000000       0.0000000000000    
  0.0000000000000       0.0000000000000    
  0.0000000000000       0.0000000000000    
  0.0000000000000       0.0000000000000    
ZONE T= "Xw:     39.9300      Yw:     22.4100      Rw:    0.500000      Zwbot:     15.5000      Zwtop:     18.0000       Specie: 12 "
  0.0000000000000       0.0000000000000    
  0.0000000000000       0.0000000000000    
  0.0000000000000       0.0000000000000    
  0.0000000000000       0.0000000000000    
  0.0000000000000       0.0000000000000    
  0.0000000000000       0.0000000000000    
  0.0000000000000       0.0000000000000    
  0.0000000000000       0.0000000000000    
  0.0000000000000       0.0000000000000    
  0.0000000000000       0.0000000000000    
  0.0000000000000       0.0000000000000    
  0.0000000000000       0.0000000000000    
  0.0000000000000       0.0000000000000    
  0.0000000000000       0.0000000000000    
  0.0000000000000       0.0000000000000    
  0.0000000000000       0.0000000000000    
  0.0000000000000       0.0000000000000    
  0.0000000000000       0.0000000000000    
  0.0000000000000       0.0000000000000    
  0.0000000000000       0.0000000000000    
  0.0000000000000       0.0000000000000    
  0.0000000000000       0.0000000000000    
  0.0000000000000       0.0000000000000    
  0.0000000000000       0.0000000000000    
  0.0000000000000       0.0000000000000    
  0.0000000000000       0.0000000000000    
  0.0000000000000       0.0000000000000    
  0.0000000000000       0.0000000000000    
  0.0000000000000       0.0000000000000    
  0.0000000000000       0.0000000000000    
  0.0000000000000       0.0000000000000    
  0.0000000000000       0.0000000000000    
  0.0000000000000       0.0000000000000    
  0.0000000000000       0.0000000000000    
  0.0000000000000       0.0000000000000    
  0.0000000000000       0.0000000000000    
  0.0000000000000       0.0000000000000    
  0.0000000000000       0.0000000000000    
ZONE T= "Xw:     39.9300      Yw:     22.4100      Rw:    0.500000      Zwbot:     15.5000      Zwtop:     18.0000       Specie: 13 "
  0.0000000000000       0.0000000000000    
  0.0000000000000       0.0000000000000    
  0.0000000000000       0.0000000000000    
  0.0000000000000       0.0000000000000    
  0.0000000000000       0.0000000000000    
  0.0000000000000       0.0000000000000    
  0.0000000000000       0.0000000000000    
  0.0000000000000       0.0000000000000    
  0.0000000000000       0.0000000000000    
  0.0000000000000       0.0000000000000    
  0.0000000000000       0.0000000000000    
  0.0000000000000       0.0000000000000    
  0.0000000000000       0.0000000000000    
  0.0000000000000       0.0000000000000    
  0.0000000000000       0.0000000000000    
  0.0000000000000       0.0000000000000    
  0.0000000000000       0.0000000000000    
  0.0000000000000       0.0000000000000    
  0.0000000000000       0.0000000000000    
  0.0000000000000       0.0000000000000    
  0.0000000000000       0.0000000000000    
  0.0000000000000       0.0000000000000    
  0.0000000000000       0.0000000000000    
  0.0000000000000       0.0000000000000    
  0.0000000000000       0.0000000000000    
  0.0000000000000       0.0000000000000    
  0.0000000000000       0.0000000000000    
  0.0000000000000       0.0000000000000    
  0.0000000000000       0.0000000000000    
  0.0000000000000       0.0000000000000    
  0.0000000000000       0.0000000000000    
  0.0000000000000       0.0000000000000    
  0.0000000000000       0.0000000000000    
  0.0000000000000       0.0000000000000    
  0.0000000000000       0.0000000000000    
  0.0000000000000       0.0000000000000    
  0.0000000000000       0.0000000000000    
  0.0000000000000       0.0000000000000    
ZONE T= "Xw:     39.9300      Yw:     22.4100      Rw:    0.500000      Zwbot:     15.5000      Zwtop:     18.0000       Specie: 14 "
  0.0000000000000       0.0000000000000    
  0.0000000000000       0.0000000000000    
  0.0000000000000       0.0000000000000    
  0.0000000000000       0.0000000000000    
  0.0000000000000       0.0000000000000    
  0.0000000000000       0.0000000000000    
  0.0000000000000       0.0000000000000    
  0.0000000000000       0.0000000000000    
  0.0000000000000       0.0000000000000    
  0.0000000000000       0.0000000000000    
  0.0000000000000       0.0000000000000    
  0.0000000000000       0.0000000000000    
  0.0000000000000       0.0000000000000    
  0.0000000000000       0.0000000000000    
  0.0000000000000       0.0000000000000    
  0.0000000000000       0.0000000000000    
  0.0000000000000       0.0000000000000    
  0.0000000000000       0.0000000000000    
  0.0000000000000       0.0000000000000    
  0.0000000000000       0.0000000000000    
  0.0000000000000       0.0000000000000    
  0.0000000000000       0.0000000000000    
  0.0000000000000       0.0000000000000    
  0.0000000000000       0.0000000000000    
  0.0000000000000       0.0000000000000    
  0.0000000000000       0.0000000000000    
  0.0000000000000       0.0000000000000    
  0.0000000000000       0.0000000000000    
  0.0000000000000       0.0000000000000    
  0.0000000000000       0.0000000000000    
  0.0000000000000       0.0000000000000    
  0.0000000000000       0.0000000000000    
  0.0000000000000       0.0000000000000    
  0.0000000000000       0.0000000000000    
  0.0000000000000       0.0000000000000    
  0.0000000000000       0.0000000000000    
  0.0000000000000       0.0000000000000    
  0.0000000000000       0.0000000000000    
ZONE T= "Xw:     39.9300      Yw:     22.4100      Rw:    0.500000      Zwbot:     12.5000      Zwtop:     15.0000       Specie:  1 "
 0.10555500000000       5.6761904761905    
  4.3055550000000       4.5561904761904    
  8.5055550000000       4.2857142857142    
  12.705555000000       5.0514285714286    
  16.905555000000       5.8019047619048    
  21.105555000000       12.685714285715    
  25.305555000000       5.7219047619048    
  29.505555000000       12.057142857143    
  33.705555000000       13.306666666667    
  37.905555000000       14.415238095239    
  42.105555000000       11.177142857143    
  46.305555000000       10.152380952381    
  50.505555000000       10.392380952381    
  54.705555000000       6.6133333333335    
  58.905555000000       10.849523809524    
  63.105555000000       10.914285714286    
  67.305555000000       15.314285714287    
  71.505555000000       7.5123809523812    
  75.705555000000       11.752380952382    
  79.905555000000       9.6190476190480    
  84.105555000000       7.1542857142859    
  88.305555000000       10.403809523810    
  92.505555000000       5.9276190476191    
  96.705555000000       8.4266666666670    
  100.90555500000       7.5580952380955    
  105.10555500000       4.0914285714285    
  109.30555500000       5.4171428571429    
  113.50555500000       2.7466666666666    
  117.70555500000       3.9428571428571    
  121.90555500000       2.9104761904761    
  126.10555500000       1.7980952380952    
  130.30555500000       2.8152380952380    
  134.50555500000       1.7257142857143    
  138.70555500000       2.3085714285714    
  142.90555500000       1.8057142857143    
  147.10555500000       1.3180952380952    
  151.30555500000       1.3828571428571    
  155.50555500000      0.78857142857143    
ZONE T= "Xw:     39.9300      Yw:     22.4100      Rw:    0.500000      Zwbot:     12.5000      Zwtop:     15.0000       Specie:  2 "
  0.0000000000000       0.0000000000000    
  0.0000000000000       0.0000000000000    
  0.0000000000000       0.0000000000000    
  0.0000000000000       0.0000000000000    
  0.0000000000000       0.0000000000000    
  0.0000000000000       0.0000000000000    
  0.0000000000000       0.0000000000000    
  0.0000000000000       0.0000000000000    
  0.0000000000000       0.0000000000000    
  0.0000000000000       0.0000000000000    
  0.0000000000000       0.0000000000000    
  0.0000000000000       0.0000000000000    
  0.0000000000000       0.0000000000000    
  0.0000000000000       0.0000000000000    
  0.0000000000000       0.0000000000000    
  0.0000000000000       0.0000000000000    
  0.0000000000000       0.0000000000000    
  0.0000000000000       0.0000000000000    
  0.0000000000000       0.0000000000000    
  0.0000000000000       0.0000000000000    
  0.0000000000000       0.0000000000000    
  0.0000000000000       0.0000000000000    
  0.0000000000000       0.0000000000000    
  0.0000000000000       0.0000000000000    
  0.0000000000000       0.0000000000000    
  0.0000000000000       0.0000000000000    
  0.0000000000000       0.0000000000000    
  0.0000000000000       0.0000000000000    
  0.0000000000000       0.0000000000000    
  0.0000000000000       0.0000000000000    
  0.0000000000000       0.0000000000000    
  0.0000000000000       0.0000000000000    
  0.0000000000000       0.0000000000000    
  0.0000000000000       0.0000000000000    
  0.0000000000000       0.0000000000000    
  0.0000000000000       0.0000000000000    
  0.0000000000000       0.0000000000000    
  0.0000000000000       0.0000000000000    
ZONE T= "Xw:     39.9300      Yw:     22.4100      Rw:    0.500000      Zwbot:     12.5000      Zwtop:     15.0000       Specie:  3 "
  0.0000000000000       0.0000000000000    
  0.0000000000000       0.0000000000000    
  0.0000000000000       0.0000000000000    
  0.0000000000000       0.0000000000000    
  0.0000000000000       0.0000000000000    