 TITLE="TECPLOT input file: Breakthrough Curves" 
 VARIABLES="Time" "Concentrations" 
ZONE T= "Xw:     39.9300      Yw:     22.4100      Rw:    0.500000      Zwbot:     15.5000      Zwtop:     18.0000       Specie:  1 "
 0.10555500000000       9.4514285714290    
  4.3055550000000       6.8380952380954    
  8.5055550000000       7.4438095238098    
  12.705555000000       7.3142857142859    
  16.905555000000       7.0628571428573    
  21.105555000000       13.481904761906    
  25.305555000000       7.2038095238097    
  29.505555000000       13.565714285715    
  33.705555000000       14.495238095239    
  37.905555000000       13.542857142858    
  42.105555000000       10.285714285715    
  46.305555000000       9.7904761904766    
  50.505555000000       10.777142857143    
  54.705555000000       6.1409523809525    
  58.905555000000       10.053333333334    
  63.105555000000       9.7752380952385    
  67.305555000000       14.697142857144    
  71.505555000000       6.4685714285716    
  75.705555000000       11.146666666667    
  79.905555000000       9.9009523809528    
  84.105555000000       6.4800000000001    
  88.305555000000       8.1752380952384    
  92.505555000000       6.2971428571430    
  96.705555000000       8.5142857142860    
  100.90555500000       7.0095238095240    
  105.10555500000       4.4152380952381    
  109.30555500000       5.3485714285715    
  113.50555500000       3.4057142857142    
  117.70555500000       5.1276190476191    
  121.90555500000       5.2266666666667    
  126.10555500000       3.5085714285714    
  130.30555500000       4.0533333333333    
  134.50555500000       2.6742857142857    
  138.70555500000       3.2685714285714    
  142.90555500000       3.5352380952380    
  147.10555500000       2.2857142857143    
  151.30555500000       3.1733333333333    
  155.50555500000       2.0190476190476    
ZONE T= "Xw:     39.9300      Yw:     22.4100      Rw:    0.500000      Zwbot:     15.5000      Zwtop:     18.0000       Specie:  2 "
  0.0000000000000       0.0000000000000    
  0.0000000000000       0.0000000000000    
  0.0000000000000       0.0000000000000    
  0.0000000000000       0.0000000000000    
  0.0000000000000       0.0000000000000    
  0.0000000000000       0.0000000000000    
  0.0000000000000       0.0000000000000    
  0.0000000000000       0.0000000000000    
  0.0000000000000       0.0000000000000    
  0.0000000000000       0.0000000000000    
  0.0000000000000       0.0000000000000    
  0.0000000000000       0.0000000000000    
  0.0000000000000       0.0000000000000    
  0.0000000000000       0.0000000000000    
  0.0000000000000       0.0000000000000    
  0.0000000000000       0.0000000000000    
  0.0000000000000       0.0000000000000    
  0.0000000000000       0.0000000000000    
  0.0000000000000       0.0000000000000    
  0.0000000000000       0.0000000000000    
  0.0000000000000       0.0000000000000    
  0.0000000000000       0.0000000000000    
  0.0000000000000       0.0000000000000    
  0.0000000000000       0.0000000000000    
  0.0000000000000       0.0000000000000    
  0.0000000000000       0.0000000000000    
  0.0000000000000       0.0000000000000    
  0.0000000000000       0.0000000000000    
  0.0000000000000       0.0000000000000    
  0.0000000000000       0.0000000000000    
  0.0000000000000       0.0000000000000    
  0.0000000000000       0.0000000000000    
  0.0000000000000       0.0000000000000    
  0.0000000000000       0.0000000000000    
  0.0000000000000       0.0000000000000    
  0.0000000000000       0.0000000000000    
  0.0000000000000       0.0000000000000    
  0.0000000000000       0.0000000000000    
ZONE T= "Xw:     39.9300      Yw:     22.4100      Rw:    0.500000      Zwbot:     15.5000      Zwtop:     18.0000       Specie:  3 "
  0.0000000000000       0.0000000000000    
  0.0000000000000       0.0000000000000    
  0.0000000000000       0.0000000000000    
  0.0000000000000       0.0000000000000    
  0.0000000000000       0.0000000000000    
  0.0000000000000       0.0000000000000    
  0.0000000000000       0.0000000000000    
  0.0000000000000       0.0000000000000    
  0.0000000000000       0.0000000000000    
  0.0000000000000       0.0000000000000    
  0.0000000000000       0.0000000000000    
  0.0000000000000       0.0000000000000    
  0.0000000000000       0.0000000000000    
  0.0000000000000       0.0000000000000    
  0.0000000000000       0.0000000000000    
  0.0000000000000       0.0000000000000    
  0.0000000000000       0.0000000000000    
  0.0000000000000       0.0000000000000    
  0.0000000000000       0.0000000000000    
  0.0000000000000       0.0000000000000    
  0.0000000000000       0.0000000000000    
  0.0000000000000       0.0000000000000    
  0.0000000000000       0.0000000000000    
  0.0000000000000       0.0000000000000    
  0.0000000000000       0.0000000000000    
  0.0000000000000       0.0000000000000    
  0.0000000000000       0.0000000000000    
  0.0000000000000       0.0000000000000    
  0.0000000000000       0.0000000000000    
  0.0000000000000       0.0000000000000    
  0.0000000000000       0.0000000000000    
  0.0000000000000       0.0000000000000    
  0.0000000000000       0.0000000000000    
  0.0000000000000       0.0000000000000    
  0.0000000000000       0.0000000000000    
  0.0000000000000       0.0000000000000    
  0.0000000000000       0.0000000000000    
  0.0000000000000       0.0000000000000    
ZONE T= "Xw:     39.9300      Yw:     22.4100      Rw:    0.500000      Zwbot:     15.5000      Zwtop:     18.0000       Specie:  4 "
 0.10555500000000       0.0000000000000    
  4.3055550000000       0.0000000000000    
  8.5055550000000       0.0000000000000    
  12.705555000000       0.0000000000000    
  16.905555000000       0.0000000000000    
  21.105555000000       0.0000000000000    
  25.305555000000       0.0000000000000    
  29.505555000000      0.19047619047619E-01
  33.705555000000      0.15238095238095E-01
  37.905555000000      0.34285714285714E-01
  42.105555000000      0.45714285714286E-01
  46.305555000000       0.0000000000000    
  50.505555000000       0.0000000000000    
  54.705555000000       0.0000000000000    
  58.905555000000       0.0000000000000    
  63.105555000000      0.38095238095238E-02
  67.305555000000      0.38095238095238E-02
  71.505555000000       0.0000000000000    
  75.705555000000       0.0000000000000    
  79.905555000000      0.64761904761905E-01
  84.105555000000      0.11428571428571E-01
  88.305555000000      0.19047619047619E-01
  92.505555000000      0.38095238095238E-02
  96.705555000000       0.0000000000000    
  100.90555500000      0.45714285714286E-01
  105.10555500000      0.30476190476190E-01
  109.30555500000       0.0000000000000    
  113.50555500000      0.38095238095238E-02
  117.70555500000       0.0000000000000    
  121.90555500000      0.19047619047619E-01
  126.10555500000       0.0000000000000    
  130.30555500000       0.0000000000000    
  134.50555500000       0.0000000000000    
  138.70555500000       0.0000000000000    
  142.90555500000       0.0000000000000    
  147.10555500000       0.0000000000000    
  151.30555500000       0.0000000000000    
  155.50555500000      0.38095238095238E-02
ZONE T= "Xw:     39.9300      Yw:     22.4100      Rw:    0.500000      Zwbot:     15.5000      Zwtop:     18.0000       Specie:  5 "
  0.0000000000000       0.0000000000000    
  0.0000000000000       0.0000000000000    
  0.0000000000000       0.0000000000000    
  0.0000000000000       0.0000000000000    
  0.0000000000000       0.0000000000000    
  0.0000000000000       0.0000000000000    
  0.0000000000000       0.0000000000000    
  0.0000000000000       0.0000000000000    
  0.0000000000000       0.0000000000000    
  0.0000000000000       0.0000000000000    
  0.0000000000000       0.0000000000000    
  0.0000000000000       0.0000000000000    
  0.0000000000000       0.0000000000000    
  0.0000000000000       0.0000000000000    
  0.0000000000000       0.0000000000000    
  0.0000000000000       0.0000000000000    
  0.0000000000000       0.0000000000000    
  0.0000000000000       0.0000000000000    
  0.0000000000000       0.0000000000000    
  0.0000000000000       0.0000000000000    
  0.0000000000000       0.0000000000000    
  0.0000000000000       0.0000000000000    
  0.0000000000000       0.0000000000000    
  0.0000000000000       0.0000000000000    
  0.0000000000000       0.0000000000000    
  0.0000000000000       0.0000000000000    
  0.0000000000000       0.0000000000000    
  0.0000000000000       0.0000000000000    
  0.0000000000000       0.0000000000000    
  0.0000000000000       0.0000000000000    
  0.0000000000000       0.0000000000000    
  0.0000000000000       0.0000000000000    
  0.0000000000000       0.0000000000000    
  0.0000000000000       0.0000000000000    
  0.0000000000000       0.0000000000000    
  0.0000000000000       0.0000000000000    
  0.0000000000000       0.0000000000000    
  0.0000000000000       0.0000000000000    
ZONE T= "Xw:     39.9300      Yw:     22.4100      Rw:    0.500000      Zwbot:     15.5000      Zwtop:     18.0000       Specie:  6 "
  0.0000000000000       0.0000000000000    
  0.0000000000000       0.0000000000000    
  0.0000000000000       0.0000000000000    
  0.0000000000000       0.0000000000000    
  0.0000000000000       0.0000000000000    
  0.0000000000000       0.0000000000000    
  0.0000000000000       0.0000000000000    
  0.0000000000000       0.0000000000000    
  0.0000000000000       0.0000000000000    
  0.0000000000000       0.0000000000000    
  0.0000000000000       0.0000000000000    
  0.0000000000000       0.0000000000000    
  0.0000000000000       0.0000000000000    
  0.0000000000000       0.0000000000000    
  0.0000000000000       0.0000000000000    
  0.0000000000000       0.0000000000000    
  0.0000000000000       0.0000000000000    
  0.0000000000000       0.0000000000000    
  0.0000000000000       0.0000000000000    
  0.0000000000000       0.0000000000000    
  0.0000000000000       0.0000000000000    
  0.0000000000000       0.0000000000000    
  0.0000000000000       0.0000000000000    
  0.0000000000000       0.0000000000000    
  0.0000000000000       0.0000000000000    
  0.0000000000000       0.0000000000000    
  0.0000000000000       0.0000000000000    
  0.0000000000000       0.0000000000000    
  0.0000000000000       0.0000000000000    
  0.0000000000000       0.0000000000000    
  0.0000000000000       0.0000000000000    
  0.0000000000000       0.0000000000000    
  0.0000000000000       0.0000000000000    
  0.0000000000000       0.0000000000000    
  0.0000000000000       0.0000000000000    
  0.0000000000000       0.0000000000000    
  0.0000000000000       0.0000000000000    
  0.0000000000000       0.0000000000000    
ZONE T= "Xw:     39.9300      Yw:     22.4100      Rw:    0.500000      Zwbot:     15.5000      Zwtop:     18.0000       Specie:  7 "
  0.0000000000000       0.0000000000000    
  0.0000000000000       0.0000000000000    
  0.0000000000000       0.0000000000000    
  0.0000000000000       0.0000000000000    
  0.0000000000000       0.0000000000000    
  0.0000000000000       0.0000000000000    
  0.0000000000000       0.0000000000000    
  0.0000000000000       0.0000000000000    
  0.0000000000000       0.0000000000000    
  0.0000000000000       0.0000000000000    
  0.0000000000000       0.0000000000000    
  0.0000000000000       0.0000000000000    
  0.0000000000000       0.0000000000000    
  0.0000000000000       0.0000000000000    
  0.0000000000000       0.0000000000000    
  0.0000000000000       0.0000000000000    
  0.0000000000000       0.0000000000000    
  0.0000000000000       0.0000000000000    
  0.0000000000000       0.0000000000000    
  0.0000000000000       0.0000000000000    
  0.0000000000000       0.0000000000000    
  0.0000000000000       0.0000000000000    
  0.0000000000000       0.0000000000000    
  0.0000000000000       0.0000000000000    
  0.0000000000000       0.0000000000000    
  0.0000000000000       0.0000000000000    
  0.0000000000000       0.0000000000000    
  0.0000000000000       0.0000000000000    
  0.0000000000000       0.0000000000000    
  0.0000000000000       0.0000000000000    
  0.0000000000000       0.0000000000000    
  0.0000000000000       0.0000000000000    
  0.0000000000000       0.0000000000000    
  0.0000000000000       0.0000000000000    
  0.0000000000000       0.0000000000000    
  0.0000000000000       0.0000000000000    
  0.0000000000000       0.0000000000000    
  0.0000000000000       0.0000000000000    
ZONE T= "Xw:     39.9300      Yw:     22.4100      Rw:    0.500000      Zwbot:     15.5000      Zwtop:     18.0000       Specie:  8 "
  0.0000000000000       0.0000000000000    
  0.0000000000000       0.0000000000000    
  0.0000000000000       0.0000000000000    
  0.0000000000000       0.0000000000000    
  0.0000000000000       0.0000000000000    
  0.0000000000000       0.0000000000000    
  0.0000000000000       0.0000000000000    
  0.0000000000000       0.0000000000000    
  0.0000000000000       0.0000000000000    
  0.0000000000000       0.0000000000000    
  0.0000000000000       0.0000000000000    
  0.0000000000000       0.0000000000000    
  0.0000000000000       0.0000000000000    
  0.0000000000000       0.0000000000000    
  0.0000000000000       0.0000000000000    
  0.0000000000000       0.0000000000000    
  0.0000000000000       0.0000000000000    
  0.0000000000000       0.0000000000000    
  0.0000000000000       0.0000000000000    
  0.0000000000000       0.0000000000000    
  0.0000000000000       0.0000000000000    
  0.0000000000000       0.0000000000000    
  0.0000000000000       0.0000000000000    
  0.0000000000000       0.0000000000000    
  0.0000000000000       0.0000000000000    
  0.0000000000000       0.0000000000000    
  0.0000000000000       0.0000000000000    
  0.0000000000000       0.0000000000000    
  0.0000000000000       0.0000000000000    
  0.0000000000000       0.0000000000000    
  0.0000000000000       0.0000000000000    
  0.0000000000000       0.0000000000000    
  0.0000000000000       0.0000000000000    
  0.0000000000000       0.0000000000000    
  0.0000000000000       0.0000000000000    
  0.0000000000000       0.0000000000000    
  0.0000000000000       0.0000000000000    
  0.0000000000000       0.0000000000000    
ZONE T= "Xw:     39.9300      Yw:     22.4100      Rw:    0.500000      Zwbot:     15.5000      Zwtop:     18.0000       Specie:  9 "
  0.0000000000000       0.0000000000000    
  0.0000000000000       0.0000000000000    
  0.0000000000000       0.0000000000000    
  0.0000000000000       0.0000000000000    
  0.0000000000000       0.0000000000000    
  0.0000000000000       0.0000000000000    
  0.0000000000000       0.0000000000000    
  0.0000000000000       0.0000000000000    
  0.0000000000000       0.0000000000000    
  0.0000000000000       0.0000000000000    
  0.0000000000000       0.0000000000000    
  0.0000000000000       0.0000000000000    
  0.0000000000000       0.0000000000000    
  0.0000000000000       0.0000000000000    
  0.0000000000000       0.0000000000000    
  0.0000000000000       0.0000000000000    
  0.0000000000000       0.0000000000000    
  0.0000000000000       0.0000000000000    
  0.0000000000000       0.0000000000000    
  0.0000000000000       0.0000000000000    
  0.0000000000000       0.0000000000000    
  0.0000000000000       0.0000000000000    
  0.0000000000000       0.0000000000000    
  0.0000000000000       0.0000000000000    
  0.0000000000000       0.0000000000000    
  0.0000000000000       0.0000000000000    
  0.0000000000000       0.0000000000000    
  0.0000000000000       0.0000000000000    
  0.0000000000000       0.0000000000000    
  0.0000000000000       0.0000000000000    
  0.0000000000000       0.0000000000000    
  0.0000000000000       0.0000000000000    
  0.0000000000000       0.0000000000000    
  0.0000000000000       0.0000000000000    
  0.0000000000000       0.0000000000000    
  0.0000000000000       0.0000000000000    
  0.0000000000000       0.0000000000000    
  0.0000000000000       0.0000000000000    
ZONE T= "Xw:     39.9300      Yw:     22.4100      Rw:    0.500000      Zwbot:     15.5000      Zwtop:     18.0000       Specie: 10 "
  0.0000000000000       0.0000000000000    
  0.0000000000000       0.0000000000000    
  0.0000000000000       0.0000000000000    
  0.0000000000000       0.0000000000000    
  0.0000000000000       0.0000000000000    
  0.0000000000000       0.0000000000000    
  0.0000000000000       0.0000000000000    
  0.0000000000000       0.0000000000000    
  0.0000000000000       0.0000000000000    
  0.0000000000000       0.0000000000000    
  0.0000000000000       0.0000000000000    
  0.0000000000000       0.0000000000000    
  0.0000000000000       0.0000000000000    
  0.0000000000000       0.0000000000000    
  0.0000000000000       0.0000000000000    
  0.0000000000000       0.0000000000000    
  0.0000000000000       0.0000000000000    
  0.0000000000000       0.0000000000000    
  0.0000000000000       0.0000000000000    
  0.0000000000000       0.0000000000000    
  0.0000000000000       0.0000000000000    
  0.0000000000000       0.0000000000000    
  0.0000000000000       0.0000000000000    
  0.0000000000000       0.0000000000000    
  0.0000000000000       0.0000000000000    
  0.0000000000000       0.0000000000000    
  0.0000000000000       0.0000000000000    
  0.0000000000000       0.0000000000000    
  0.0000000000000       0.0000000000000    
  0.0000000000000       0.0000000000000    
  0.0000000000000       0.0000000000000    
  0.0000000000000       0.0000000000000    
  0.0000000000000       0.0000000000000    
  0.0000000000000       0.0000000000000    
  0.0000000000000       0.0000000000000    
  0.0000000000000       0.0000000000000    
  0.0000000000000       0.0000000000000    
  0.0000000000000       0.0000000000000    
ZONE T= "Xw:     39.9300      Yw:     22.4100      Rw:    0.500000      Zwbot:     15.5000      Zwtop:     18.0000       Specie: 11 "
  0.0000000000000       0.0000000000000    
  0.0000000000000       0.0000000000000    
  0.0000000000000       0.0000000000000    
  0.0000000000000       0.0000000000000    
  0.0000000000000       0.0000000000000    
  0.0000000000000       0.0000000000000    
  0.0000000000000       0.0000000000000    
  0.0000000000000       0.0000000000000    
  0.0000000000000       0.0000000000000    
  0.0000000000000       0.0000000000000    
  0.0000000000000       0.0000000000000    
  0.0000000000000       0.0000000000000    
  0.0000000000000       0.0000000000000    
  0.0000000000000       0.0000000000000    
  0.0000000000000       0.0000000000000    
  0.0000000000000       0.0000000000000    
  0.0000000000000       0.0000000000000    
  0.0000000000000       0.0000000000000    
  0.0000000000000       0.0000000000000    
  0.0000000000000       0.0000000000000    
  0.0000000000000       0.0000000000000    
  0.0000000000000       0.0000000000000    
  0.0000000000000       0.0000000000000    
  0.0000000000000       0.0000000000000    
  0.0000000000000       0.0000000000000    
  0.0000000000000       0.0000000000000    
  0.0000000000000       0.0000000000000    
  0.0000000000000       0.0000000000000    
  0.0000000000000       0.0000000000000    
  0.0000000000000       0.0000000000000    
  0.0000000000000       0.0000000000000    
  0.0000000000000       0.0000000000000    
  0.0000000000000       0.0000000000000    
  0.0000000000000       0.0000000000000    
  0.0000000000000       0.0000000000000    
  0.0000000000000       0.0000000000000    
  0.0000000000000       0.0000000000000    
  0.0000000000000       0.0000000000000    
ZONE T= "Xw:     39.9300      Yw:     22.4100      Rw:    0.500000      Zwbot:     15.5000      Zwtop:     18.0000       Specie: 12 "
  0.0000000000000       0.0000000000000    
  0.0000000000000       0.0000000000000    
  0.0000000000000       0.0000000000000    
  0.0000000000000       0.0000000000000    
  0.0000000000000       0.0000000000000    
  0.0000000000000       0.0000000000000    
  0.0000000000000       0.0000000000000    
  0.0000000000000       0.0000000000000    
  0.0000000000000       0.0000000000000    
  0.0000000000000       0.0000000000000    
  0.0000000000000       0.0000000000000    
  0.0000000000000       0.0000000000000    
  0.0000000000000       0.0000000000000    
  0.0000000000000       0.0000000000000    
  0.0000000000000       0.0000000000000    
  0.0000000000000       0.0000000000000    
  0.0000000000000       0.0000000000000    
  0.0000000000000       0.0000000000000    
  0.0000000000000       0.0000000000000    
  0.0000000000000       0.0000000000000    
  0.0000000000000       0.0000000000000    
  0.0000000000000       0.0000000000000    
  0.0000000000000       0.0000000000000    
  0.0000000000000       0.0000000000000    
  0.0000000000000       0.0000000000000    
  0.0000000000000       0.0000000000000    
  0.0000000000000       0.0000000000000    
  0.0000000000000       0.0000000000000    
  0.0000000000000       0.0000000000000    
  0.0000000000000       0.0000000000000    
  0.0000000000000       0.0000000000000    
  0.0000000000000       0.0000000000000    
  0.0000000000000       0.0000000000000    
  0.0000000000000       0.0000000000000    
  0.0000000000000       0.0000000000000    
  0.0000000000000       0.0000000000000    
  0.0000000000000       0.0000000000000    
  0.0000000000000       0.0000000000000    
ZONE T= "Xw:     39.9300      Yw:     22.4100      Rw:    0.500000      Zwbot:     15.5000      Zwtop:     18.0000       Specie: 13 "
  0.0000000000000       0.0000000000000    
  0.0000000000000       0.0000000000000    
  0.0000000000000       0.0000000000000    
  0.0000000000000       0.0000000000000    
  0.0000000000000       0.0000000000000    
  0.0000000000000       0.0000000000000    
  0.0000000000000       0.0000000000000    
  0.0000000000000       0.0000000000000    
  0.0000000000000       0.0000000000000    
  0.0000000000000       0.0000000000000    
  0.0000000000000       0.0000000000000    
  0.0000000000000       0.0000000000000    
  0.0000000000000       0.0000000000000    
  0.0000000000000       0.0000000000000    
  0.0000000000000       0.0000000000000    
  0.0000000000000       0.0000000000000    
  0.0000000000000       0.0000000000000    
  0.0000000000000       0.0000000000000    
  0.0000000000000       0.0000000000000    
  0.0000000000000       0.0000000000000    
  0.0000000000000       0.0000000000000    
  0.0000000000000       0.0000000000000    
  0.0000000000000       0.0000000000000    
  0.0000000000000       0.0000000000000    
  0.0000000000000       0.0000000000000    
  0.0000000000000       0.0000000000000    
  0.0000000000000       0.0000000000000    
  0.0000000000000       0.0000000000000    
  0.0000000000000       0.0000000000000    
  0.0000000000000       0.0000000000000    
  0.0000000000000       0.0000000000000    
  0.0000000000000       0.0000000000000    
  0.0000000000000       0.0000000000000    
  0.0000000000000       0.0000000000000    
  0.0000000000000       0.0000000000000    
  0.0000000000000       0.0000000000000    
  0.0000000000000       0.0000000000000    
  0.0000000000000       0.0000000000000    
ZONE T= "Xw:     39.9300      Yw:     22.4100      Rw:    0.500000      Zwbot:     15.5000      Zwtop:     18.0000       Specie: 14 "
  0.0000000000000       0.0000000000000    
  0.0000000000000       0.0000000000000    
  0.0000000000000       0.0000000000000    
  0.0000000000000       0.0000000000000    
  0.0000000000000       0.0000000000000    
  0.0000000000000       0.0000000000000    
  0.0000000000000       0.0000000000000    
  0.0000000000000       0.0000000000000    
  0.0000000000000       0.0000000000000    
  0.0000000000000       0.0000000000000    
  0.0000000000000       0.0000000000000    
  0.0000000000000       0.0000000000000    
  0.0000000000000       0.0000000000000    
  0.0000000000000       0.0000000000000    
  0.0000000000000       0.0000000000000    
  0.0000000000000       0.0000000000000    
  0.0000000000000       0.0000000000000    
  0.0000000000000       0.0000000000000    
  0.0000000000000       0.0000000000000    
  0.0000000000000       0.0000000000000    
  0.0000000000000       0.0000000000000    
  0.0000000000000       0.0000000000000    
  0.0000000000000       0.0000000000000    
  0.0000000000000       0.0000000000000    
  0.0000000000000       0.0000000000000    
  0.0000000000000       0.0000000000000    
  0.0000000000000       0.0000000000000    
  0.0000000000000       0.0000000000000    
  0.0000000000000       0.0000000000000    
  0.0000000000000       0.0000000000000    
  0.0000000000000       0.0000000000000    
  0.0000000000000       0.0000000000000    
  0.0000000000000       0.0000000000000    
  0.0000000000000       0.0000000000000    
  0.0000000000000       0.0000000000000    
  0.0000000000000       0.0000000000000    
  0.0000000000000       0.0000000000000    
  0.0000000000000       0.0000000000000    
ZONE T= "Xw:     39.9300      Yw:     22.4100      Rw:    0.500000      Zwbot:     12.5000      Zwtop:     15.0000       Specie:  1 "
 0.10555500000000       5.9771428571430    
  4.3055550000000       4.3352380952380    
  8.5055550000000       4.2361904761904    
  12.705555000000       4.8761904761905    
  16.905555000000       5.1504761904762    
  21.105555000000       11.725714285715    
  25.305555000000       5.9695238095239    
  29.505555000000       11.001904761905    
  33.705555000000       12.758095238096    
  37.905555000000       12.339047619048    
  42.105555000000       9.0285714285718    
  46.305555000000       9.8476190476195    
  50.505555000000       10.190476190477    
  54.705555000000       6.3695238095239    
  58.905555000000       9.7066666666671    
  63.105555000000       10.129523809524    
  67.305555000000       16.350476190477    
  71.505555000000       7.3371428571431    
  75.705555000000       11.859047619048    
  79.905555000000       9.9542857142862    
  84.105555000000       6.8304761904764    
  88.305555000000       9.6000000000004    
  92.505555000000       4.6514285714286    
  96.705555000000       7.0819047619050    
  100.90555500000       6.8342857142859    
  105.10555500000       3.4857142857142    
  109.30555500000       4.4000000000000    
  113.50555500000       2.6742857142857    
  117.70555500000       3.0019047619047    
  121.90555500000       2.7733333333333    
  126.10555500000       1.5542857142857    
  130.30555500000       2.5104761904762    
  134.50555500000       1.2342857142857    
  138.70555500000       1.6342857142857    
  142.90555500000       1.7866666666666    
  147.10555500000      0.63619047619048    
  151.30555500000       1.1619047619048    
  155.50555500000      0.57523809523810    
ZONE T= "Xw:     39.9300      Yw:     22.4100      Rw:    0.500000      Zwbot:     12.5000      Zwtop:     15.0000       Specie:  2 "
  0.0000000000000       0.0000000000000    
  0.0000000000000       0.0000000000000    
  0.0000000000000       0.0000000000000    
  0.0000000000000       0.0000000000000    
  0.0000000000000       0.0000000000000    
  0.0000000000000       0.0000000000000    
  0.0000000000000       0.0000000000000    
  0.0000000000000       0.0000000000000    
  0.0000000000000       0.0000000000000    
  0.0000000000000       0.0000000000000    
  0.0000000000000       0.0000000000000    
  0.0000000000000       0.0000000000000    
  0.0000000000000       0.0000000000000    
  0.0000000000000       0.0000000000000    
  0.0000000000000       0.0000000000000    
  0.0000000000000       0.0000000000000    
  0.0000000000000       0.0000000000000    
  0.0000000000000       0.0000000000000    
  0.0000000000000       0.0000000000000    
  0.0000000000000       0.0000000000000    
  0.0000000000000       0.0000000000000    
  0.0000000000000       0.0000000000000    
  0.0000000000000       0.0000000000000    
  0.0000000000000       0.0000000000000    
  0.0000000000000       0.0000000000000    
  0.0000000000000       0.0000000000000    
  0.0000000000000       0.0000000000000    
  0.0000000000000       0.0000000000000    
  0.0000000000000       0.0000000000000    
  0.0000000000000       0.0000000000000    
  0.0000000000000       0.0000000000000    
  0.0000000000000       0.0000000000000    
  0.0000000000000       0.0000000000000    
  0.0000000000000       0.0000000000000    
  0.0000000000000       0.0000000000000    
  0.0000000000000       0.0000000000000    
  0.0000000000000       0.0000000000000    
  0.0000000000000       0.0000000000000    
ZONE T= "Xw:     39.9300      Yw:     22.4100      Rw:    0.500000      Zwbot:     12.5000      Zwtop:     15.0000       Specie:  3 "
  0.0000000000000       0.0000000000000    
  0.0000000000000       0.0000000000000    
  0.0000000000000       0.0000000000000    
  0.0000000000000       0.0000000000000    
  0.0000000000000       0.0000000000000    