 TITLE="TECPLOT input file: Breakthrough Curves" 
 VARIABLES="Time" "Concentrations" 
ZONE T= "Xw:     39.9300      Yw:     22.4100      Rw:    0.500000      Zwbot:     15.5000      Zwtop:     18.0000       Specie:  1 "
 0.10555500000000       10.198095238096    
  4.3055550000000       7.0438095238097    
  8.5055550000000       7.2076190476193    
  12.705555000000       7.8514285714288    
  16.905555000000       8.1180952380955    
  21.105555000000       14.655238095239    
  25.305555000000       7.3104761904764    
  29.505555000000       14.407619047620    
  33.705555000000       14.308571428572    
  37.905555000000       14.278095238096    
  42.105555000000       9.8857142857147    
  46.305555000000       10.285714285715    
  50.505555000000       9.6228571428576    
  54.705555000000       6.3619047619049    
  58.905555000000       10.038095238096    
  63.105555000000       10.765714285715    
  67.305555000000       15.516190476191    
  71.505555000000       6.3009523809525    
  75.705555000000       10.209523809524    
  79.905555000000       10.114285714286    
  84.105555000000       6.5180952380954    
  88.305555000000       9.7295238095242    
  92.505555000000       6.3542857142858    
  96.705555000000       8.4761904761908    
  100.90555500000       7.5009523809526    
  105.10555500000       5.3295238095238    
  109.30555500000       7.5771428571431    
  113.50555500000       4.3580952380952    
  117.70555500000       5.2114285714286    
  121.90555500000       5.0323809523810    
  126.10555500000       2.8876190476190    
  130.30555500000       3.8438095238094    
  134.50555500000       2.3885714285714    
  138.70555500000       3.6876190476190    
  142.90555500000       3.8285714285714    
  147.10555500000       2.3276190476190    
  151.30555500000       3.9047619047618    
  155.50555500000       2.2742857142857    
ZONE T= "Xw:     39.9300      Yw:     22.4100      Rw:    0.500000      Zwbot:     15.5000      Zwtop:     18.0000       Specie:  2 "
  0.0000000000000       0.0000000000000    
  0.0000000000000       0.0000000000000    
  0.0000000000000       0.0000000000000    
  0.0000000000000       0.0000000000000    
  0.0000000000000       0.0000000000000    
  0.0000000000000       0.0000000000000    
  0.0000000000000       0.0000000000000    
  0.0000000000000       0.0000000000000    
  0.0000000000000       0.0000000000000    
  0.0000000000000       0.0000000000000    
  0.0000000000000       0.0000000000000    
  0.0000000000000       0.0000000000000    
  0.0000000000000       0.0000000000000    
  0.0000000000000       0.0000000000000    
  0.0000000000000       0.0000000000000    
  0.0000000000000       0.0000000000000    
  0.0000000000000       0.0000000000000    
  0.0000000000000       0.0000000000000    
  0.0000000000000       0.0000000000000    
  0.0000000000000       0.0000000000000    
  0.0000000000000       0.0000000000000    
  0.0000000000000       0.0000000000000    
  0.0000000000000       0.0000000000000    
  0.0000000000000       0.0000000000000    
  0.0000000000000       0.0000000000000    
  0.0000000000000       0.0000000000000    
  0.0000000000000       0.0000000000000    
  0.0000000000000       0.0000000000000    
  0.0000000000000       0.0000000000000    
  0.0000000000000       0.0000000000000    
  0.0000000000000       0.0000000000000    
  0.0000000000000       0.0000000000000    
  0.0000000000000       0.0000000000000    
  0.0000000000000       0.0000000000000    
  0.0000000000000       0.0000000000000    
  0.0000000000000       0.0000000000000    
  0.0000000000000       0.0000000000000    
  0.0000000000000       0.0000000000000    
ZONE T= "Xw:     39.9300      Yw:     22.4100      Rw:    0.500000      Zwbot:     15.5000      Zwtop:     18.0000       Specie:  3 "
  0.0000000000000       0.0000000000000    
  0.0000000000000       0.0000000000000    
  0.0000000000000       0.0000000000000    
  0.0000000000000       0.0000000000000    
  0.0000000000000       0.0000000000000    
  0.0000000000000       0.0000000000000    
  0.0000000000000       0.0000000000000    
  0.0000000000000       0.0000000000000    
  0.0000000000000       0.0000000000000    
  0.0000000000000       0.0000000000000    
  0.0000000000000       0.0000000000000    
  0.0000000000000       0.0000000000000    
  0.0000000000000       0.0000000000000    
  0.0000000000000       0.0000000000000    
  0.0000000000000       0.0000000000000    
  0.0000000000000       0.0000000000000    
  0.0000000000000       0.0000000000000    
  0.0000000000000       0.0000000000000    
  0.0000000000000       0.0000000000000    
  0.0000000000000       0.0000000000000    
  0.0000000000000       0.0000000000000    
  0.0000000000000       0.0000000000000    
  0.0000000000000       0.0000000000000    
  0.0000000000000       0.0000000000000    
  0.0000000000000       0.0000000000000    
  0.0000000000000       0.0000000000000    
  0.0000000000000       0.0000000000000    
  0.0000000000000       0.0000000000000    
  0.0000000000000       0.0000000000000    
  0.0000000000000       0.0000000000000    
  0.0000000000000       0.0000000000000    
  0.0000000000000       0.0000000000000    
  0.0000000000000       0.0000000000000    
  0.0000000000000       0.0000000000000    
  0.0000000000000       0.0000000000000    
  0.0000000000000       0.0000000000000    
  0.0000000000000       0.0000000000000    
  0.0000000000000       0.0000000000000    
ZONE T= "Xw:     39.9300      Yw:     22.4100      Rw:    0.500000      Zwbot:     15.5000      Zwtop:     18.0000       Specie:  4 "
 0.10555500000000       0.0000000000000    
  4.3055550000000       0.0000000000000    
  8.5055550000000       0.0000000000000    
  12.705555000000       0.0000000000000    
  16.905555000000       0.0000000000000    
  21.105555000000       0.0000000000000    
  25.305555000000       0.0000000000000    
  29.505555000000       0.0000000000000    
  33.705555000000       0.0000000000000    
  37.905555000000       0.0000000000000    
  42.105555000000       0.0000000000000    
  46.305555000000      0.38095238095238E-02
  50.505555000000      0.38095238095238E-01
  54.705555000000      0.30476190476190E-01
  58.905555000000       0.0000000000000    
  63.105555000000       0.0000000000000    
  67.305555000000      0.26666666666667E-01
  71.505555000000       0.0000000000000    
  75.705555000000       0.0000000000000    
  79.905555000000      0.38095238095238E-02
  84.105555000000      0.22857142857143E-01
  88.305555000000      0.76190476190476E-02
  92.505555000000      0.22857142857143E-01
  96.705555000000      0.11428571428571E-01
  100.90555500000       0.0000000000000    
  105.10555500000      0.11428571428571E-01
  109.30555500000       0.0000000000000    
  113.50555500000      0.38095238095238E-02
  117.70555500000       0.0000000000000    
  121.90555500000       0.0000000000000    
  126.10555500000       0.0000000000000    
  130.30555500000       0.0000000000000    
  134.50555500000       0.0000000000000    
  138.70555500000       0.0000000000000    
  142.90555500000       0.0000000000000    
  147.10555500000       0.0000000000000    
  151.30555500000       0.0000000000000    
  155.50555500000       0.0000000000000    
ZONE T= "Xw:     39.9300      Yw:     22.4100      Rw:    0.500000      Zwbot:     15.5000      Zwtop:     18.0000       Specie:  5 "
  0.0000000000000       0.0000000000000    
  0.0000000000000       0.0000000000000    
  0.0000000000000       0.0000000000000    
  0.0000000000000       0.0000000000000    
  0.0000000000000       0.0000000000000    
  0.0000000000000       0.0000000000000    
  0.0000000000000       0.0000000000000    
  0.0000000000000       0.0000000000000    
  0.0000000000000       0.0000000000000    
  0.0000000000000       0.0000000000000    
  0.0000000000000       0.0000000000000    
  0.0000000000000       0.0000000000000    
  0.0000000000000       0.0000000000000    
  0.0000000000000       0.0000000000000    
  0.0000000000000       0.0000000000000    
  0.0000000000000       0.0000000000000    
  0.0000000000000       0.0000000000000    
  0.0000000000000       0.0000000000000    
  0.0000000000000       0.0000000000000    
  0.0000000000000       0.0000000000000    
  0.0000000000000       0.0000000000000    
  0.0000000000000       0.0000000000000    
  0.0000000000000       0.0000000000000    
  0.0000000000000       0.0000000000000    
  0.0000000000000       0.0000000000000    
  0.0000000000000       0.0000000000000    
  0.0000000000000       0.0000000000000    
  0.0000000000000       0.0000000000000    
  0.0000000000000       0.0000000000000    
  0.0000000000000       0.0000000000000    
  0.0000000000000       0.0000000000000    
  0.0000000000000       0.0000000000000    
  0.0000000000000       0.0000000000000    
  0.0000000000000       0.0000000000000    
  0.0000000000000       0.0000000000000    
  0.0000000000000       0.0000000000000    
  0.0000000000000       0.0000000000000    
  0.0000000000000       0.0000000000000    
ZONE T= "Xw:     39.9300      Yw:     22.4100      Rw:    0.500000      Zwbot:     15.5000      Zwtop:     18.0000       Specie:  6 "
  0.0000000000000       0.0000000000000    
  0.0000000000000       0.0000000000000    
  0.0000000000000       0.0000000000000    
  0.0000000000000       0.0000000000000    
  0.0000000000000       0.0000000000000    
  0.0000000000000       0.0000000000000    
  0.0000000000000       0.0000000000000    
  0.0000000000000       0.0000000000000    
  0.0000000000000       0.0000000000000    
  0.0000000000000       0.0000000000000    
  0.0000000000000       0.0000000000000    
  0.0000000000000       0.0000000000000    
  0.0000000000000       0.0000000000000    
  0.0000000000000       0.0000000000000    
  0.0000000000000       0.0000000000000    
  0.0000000000000       0.0000000000000    
  0.0000000000000       0.0000000000000    
  0.0000000000000       0.0000000000000    
  0.0000000000000       0.0000000000000    
  0.0000000000000       0.0000000000000    
  0.0000000000000       0.0000000000000    
  0.0000000000000       0.0000000000000    
  0.0000000000000       0.0000000000000    
  0.0000000000000       0.0000000000000    
  0.0000000000000       0.0000000000000    
  0.0000000000000       0.0000000000000    
  0.0000000000000       0.0000000000000    
  0.0000000000000       0.0000000000000    
  0.0000000000000       0.0000000000000    
  0.0000000000000       0.0000000000000    
  0.0000000000000       0.0000000000000    
  0.0000000000000       0.0000000000000    
  0.0000000000000       0.0000000000000    
  0.0000000000000       0.0000000000000    
  0.0000000000000       0.0000000000000    
  0.0000000000000       0.0000000000000    
  0.0000000000000       0.0000000000000    
  0.0000000000000       0.0000000000000    
ZONE T= "Xw:     39.9300      Yw:     22.4100      Rw:    0.500000      Zwbot:     15.5000      Zwtop:     18.0000       Specie:  7 "
  0.0000000000000       0.0000000000000    
  0.0000000000000       0.0000000000000    
  0.0000000000000       0.0000000000000    
  0.0000000000000       0.0000000000000    
  0.0000000000000       0.0000000000000    
  0.0000000000000       0.0000000000000    
  0.0000000000000       0.0000000000000    
  0.0000000000000       0.0000000000000    
  0.0000000000000       0.0000000000000    
  0.0000000000000       0.0000000000000    
  0.0000000000000       0.0000000000000    
  0.0000000000000       0.0000000000000    
  0.0000000000000       0.0000000000000    
  0.0000000000000       0.0000000000000    
  0.0000000000000       0.0000000000000    
  0.0000000000000       0.0000000000000    
  0.0000000000000       0.0000000000000    
  0.0000000000000       0.0000000000000    
  0.0000000000000       0.0000000000000    
  0.0000000000000       0.0000000000000    
  0.0000000000000       0.0000000000000    
  0.0000000000000       0.0000000000000    
  0.0000000000000       0.0000000000000    
  0.0000000000000       0.0000000000000    
  0.0000000000000       0.0000000000000    
  0.0000000000000       0.0000000000000    
  0.0000000000000       0.0000000000000    
  0.0000000000000       0.0000000000000    
  0.0000000000000       0.0000000000000    
  0.0000000000000       0.0000000000000    
  0.0000000000000       0.0000000000000    
  0.0000000000000       0.0000000000000    
  0.0000000000000       0.0000000000000    
  0.0000000000000       0.0000000000000    
  0.0000000000000       0.0000000000000    
  0.0000000000000       0.0000000000000    
  0.0000000000000       0.0000000000000    
  0.0000000000000       0.0000000000000    
ZONE T= "Xw:     39.9300      Yw:     22.4100      Rw:    0.500000      Zwbot:     15.5000      Zwtop:     18.0000       Specie:  8 "
  0.0000000000000       0.0000000000000    
  0.0000000000000       0.0000000000000    
  0.0000000000000       0.0000000000000    
  0.0000000000000       0.0000000000000    
  0.0000000000000       0.0000000000000    
  0.0000000000000       0.0000000000000    
  0.0000000000000       0.0000000000000    
  0.0000000000000       0.0000000000000    
  0.0000000000000       0.0000000000000    
  0.0000000000000       0.0000000000000    
  0.0000000000000       0.0000000000000    
  0.0000000000000       0.0000000000000    
  0.0000000000000       0.0000000000000    
  0.0000000000000       0.0000000000000    
  0.0000000000000       0.0000000000000    
  0.0000000000000       0.0000000000000    
  0.0000000000000       0.0000000000000    
  0.0000000000000       0.0000000000000    
  0.0000000000000       0.0000000000000    
  0.0000000000000       0.0000000000000    
  0.0000000000000       0.0000000000000    
  0.0000000000000       0.0000000000000    
  0.0000000000000       0.0000000000000    
  0.0000000000000       0.0000000000000    
  0.0000000000000       0.0000000000000    
  0.0000000000000       0.0000000000000    
  0.0000000000000       0.0000000000000    
  0.0000000000000       0.0000000000000    
  0.0000000000000       0.0000000000000    
  0.0000000000000       0.0000000000000    
  0.0000000000000       0.0000000000000    
  0.0000000000000       0.0000000000000    
  0.0000000000000       0.0000000000000    
  0.0000000000000       0.0000000000000    
  0.0000000000000       0.0000000000000    
  0.0000000000000       0.0000000000000    
  0.0000000000000       0.0000000000000    
  0.0000000000000       0.0000000000000    
ZONE T= "Xw:     39.9300      Yw:     22.4100      Rw:    0.500000      Zwbot:     15.5000      Zwtop:     18.0000       Specie:  9 "
  0.0000000000000       0.0000000000000    
  0.0000000000000       0.0000000000000    
  0.0000000000000       0.0000000000000    
  0.0000000000000       0.0000000000000    
  0.0000000000000       0.0000000000000    
  0.0000000000000       0.0000000000000    
  0.0000000000000       0.0000000000000    
  0.0000000000000       0.0000000000000    
  0.0000000000000       0.0000000000000    
  0.0000000000000       0.0000000000000    
  0.0000000000000       0.0000000000000    
  0.0000000000000       0.0000000000000    
  0.0000000000000       0.0000000000000    
  0.0000000000000       0.0000000000000    
  0.0000000000000       0.0000000000000    
  0.0000000000000       0.0000000000000    
  0.0000000000000       0.0000000000000    
  0.0000000000000       0.0000000000000    
  0.0000000000000       0.0000000000000    
  0.0000000000000       0.0000000000000    
  0.0000000000000       0.0000000000000    
  0.0000000000000       0.0000000000000    
  0.0000000000000       0.0000000000000    
  0.0000000000000       0.0000000000000    
  0.0000000000000       0.0000000000000    
  0.0000000000000       0.0000000000000    
  0.0000000000000       0.0000000000000    
  0.0000000000000       0.0000000000000    
  0.0000000000000       0.0000000000000    
  0.0000000000000       0.0000000000000    
  0.0000000000000       0.0000000000000    
  0.0000000000000       0.0000000000000    
  0.0000000000000       0.0000000000000    
  0.0000000000000       0.0000000000000    
  0.0000000000000       0.0000000000000    
  0.0000000000000       0.0000000000000    
  0.0000000000000       0.0000000000000    
  0.0000000000000       0.0000000000000    
ZONE T= "Xw:     39.9300      Yw:     22.4100      Rw:    0.500000      Zwbot:     15.5000      Zwtop:     18.0000       Specie: 10 "
  0.0000000000000       0.0000000000000    
  0.0000000000000       0.0000000000000    
  0.0000000000000       0.0000000000000    
  0.0000000000000       0.0000000000000    
  0.0000000000000       0.0000000000000    
  0.0000000000000       0.0000000000000    
  0.0000000000000       0.0000000000000    
  0.0000000000000       0.0000000000000    
  0.0000000000000       0.0000000000000    
  0.0000000000000       0.0000000000000    
  0.0000000000000       0.0000000000000    
  0.0000000000000       0.0000000000000    
  0.0000000000000       0.0000000000000    
  0.0000000000000       0.0000000000000    
  0.0000000000000       0.0000000000000    
  0.0000000000000       0.0000000000000    
  0.0000000000000       0.0000000000000    
  0.0000000000000       0.0000000000000    
  0.0000000000000       0.0000000000000    
  0.0000000000000       0.0000000000000    
  0.0000000000000       0.0000000000000    
  0.0000000000000       0.0000000000000    
  0.0000000000000       0.0000000000000    
  0.0000000000000       0.0000000000000    
  0.0000000000000       0.0000000000000    
  0.0000000000000       0.0000000000000    
  0.0000000000000       0.0000000000000    
  0.0000000000000       0.0000000000000    
  0.0000000000000       0.0000000000000    
  0.0000000000000       0.0000000000000    
  0.0000000000000       0.0000000000000    
  0.0000000000000       0.0000000000000    
  0.0000000000000       0.0000000000000    
  0.0000000000000       0.0000000000000    
  0.0000000000000       0.0000000000000    
  0.0000000000000       0.0000000000000    
  0.0000000000000       0.0000000000000    
  0.0000000000000       0.0000000000000    
ZONE T= "Xw:     39.9300      Yw:     22.4100      Rw:    0.500000      Zwbot:     15.5000      Zwtop:     18.0000       Specie: 11 "
  0.0000000000000       0.0000000000000    
  0.0000000000000       0.0000000000000    
  0.0000000000000       0.0000000000000    
  0.0000000000000       0.0000000000000    
  0.0000000000000       0.0000000000000    
  0.0000000000000       0.0000000000000    
  0.0000000000000       0.0000000000000    
  0.0000000000000       0.0000000000000    
  0.0000000000000       0.0000000000000    
  0.0000000000000       0.0000000000000    
  0.0000000000000       0.0000000000000    
  0.0000000000000       0.0000000000000    
  0.0000000000000       0.0000000000000    
  0.0000000000000       0.0000000000000    
  0.0000000000000       0.0000000000000    
  0.0000000000000       0.0000000000000    
  0.0000000000000       0.0000000000000    
  0.0000000000000       0.0000000000000    
  0.0000000000000       0.0000000000000    
  0.0000000000000       0.0000000000000    
  0.0000000000000       0.0000000000000    
  0.0000000000000       0.0000000000000    
  0.0000000000000       0.0000000000000    
  0.0000000000000       0.0000000000000    
  0.0000000000000       0.0000000000000    
  0.0000000000000       0.0000000000000    
  0.0000000000000       0.0000000000000    
  0.0000000000000       0.0000000000000    
  0.0000000000000       0.0000000000000    
  0.0000000000000       0.0000000000000    
  0.0000000000000       0.0000000000000    
  0.0000000000000       0.0000000000000    
  0.0000000000000       0.0000000000000    
  0.0000000000000       0.0000000000000    
  0.0000000000000       0.0000000000000    
  0.0000000000000       0.0000000000000    
  0.0000000000000       0.0000000000000    
  0.0000000000000       0.0000000000000    
ZONE T= "Xw:     39.9300      Yw:     22.4100      Rw:    0.500000      Zwbot:     15.5000      Zwtop:     18.0000       Specie: 12 "
  0.0000000000000       0.0000000000000    
  0.0000000000000       0.0000000000000    
  0.0000000000000       0.0000000000000    
  0.0000000000000       0.0000000000000    
  0.0000000000000       0.0000000000000    
  0.0000000000000       0.0000000000000    
  0.0000000000000       0.0000000000000    
  0.0000000000000       0.0000000000000    
  0.0000000000000       0.0000000000000    
  0.0000000000000       0.0000000000000    
  0.0000000000000       0.0000000000000    
  0.0000000000000       0.0000000000000    
  0.0000000000000       0.0000000000000    
  0.0000000000000       0.0000000000000    
  0.0000000000000       0.0000000000000    
  0.0000000000000       0.0000000000000    
  0.0000000000000       0.0000000000000    
  0.0000000000000       0.0000000000000    
  0.0000000000000       0.0000000000000    
  0.0000000000000       0.0000000000000    
  0.0000000000000       0.0000000000000    
  0.0000000000000       0.0000000000000    
  0.0000000000000       0.0000000000000    
  0.0000000000000       0.0000000000000    
  0.0000000000000       0.0000000000000    
  0.0000000000000       0.0000000000000    
  0.0000000000000       0.0000000000000    
  0.0000000000000       0.0000000000000    
  0.0000000000000       0.0000000000000    
  0.0000000000000       0.0000000000000    
  0.0000000000000       0.0000000000000    
  0.0000000000000       0.0000000000000    
  0.0000000000000       0.0000000000000    
  0.0000000000000       0.0000000000000    
  0.0000000000000       0.0000000000000    
  0.0000000000000       0.0000000000000    
  0.0000000000000       0.0000000000000    
  0.0000000000000       0.0000000000000    
ZONE T= "Xw:     39.9300      Yw:     22.4100      Rw:    0.500000      Zwbot:     15.5000      Zwtop:     18.0000       Specie: 13 "
  0.0000000000000       0.0000000000000    
  0.0000000000000       0.0000000000000    
  0.0000000000000       0.0000000000000    
  0.0000000000000       0.0000000000000    
  0.0000000000000       0.0000000000000    
  0.0000000000000       0.0000000000000    
  0.0000000000000       0.0000000000000    
  0.0000000000000       0.0000000000000    
  0.0000000000000       0.0000000000000    
  0.0000000000000       0.0000000000000    
  0.0000000000000       0.0000000000000    
  0.0000000000000       0.0000000000000    
  0.0000000000000       0.0000000000000    
  0.0000000000000       0.0000000000000    
  0.0000000000000       0.0000000000000    
  0.0000000000000       0.0000000000000    
  0.0000000000000       0.0000000000000    
  0.0000000000000       0.0000000000000    
  0.0000000000000       0.0000000000000    
  0.0000000000000       0.0000000000000    
  0.0000000000000       0.0000000000000    
  0.0000000000000       0.0000000000000    
  0.0000000000000       0.0000000000000    
  0.0000000000000       0.0000000000000    
  0.0000000000000       0.0000000000000    
  0.0000000000000       0.0000000000000    
  0.0000000000000       0.0000000000000    
  0.0000000000000       0.0000000000000    
  0.0000000000000       0.0000000000000    
  0.0000000000000       0.0000000000000    
  0.0000000000000       0.0000000000000    
  0.0000000000000       0.0000000000000    
  0.0000000000000       0.0000000000000    
  0.0000000000000       0.0000000000000    
  0.0000000000000       0.0000000000000    
  0.0000000000000       0.0000000000000    
  0.0000000000000       0.0000000000000    
  0.0000000000000       0.0000000000000    
ZONE T= "Xw:     39.9300      Yw:     22.4100      Rw:    0.500000      Zwbot:     15.5000      Zwtop:     18.0000       Specie: 14 "
  0.0000000000000       0.0000000000000    
  0.0000000000000       0.0000000000000    
  0.0000000000000       0.0000000000000    
  0.0000000000000       0.0000000000000    
  0.0000000000000       0.0000000000000    
  0.0000000000000       0.0000000000000    
  0.0000000000000       0.0000000000000    
  0.0000000000000       0.0000000000000    
  0.0000000000000       0.0000000000000    
  0.0000000000000       0.0000000000000    
  0.0000000000000       0.0000000000000    
  0.0000000000000       0.0000000000000    
  0.0000000000000       0.0000000000000    
  0.0000000000000       0.0000000000000    
  0.0000000000000       0.0000000000000    
  0.0000000000000       0.0000000000000    
  0.0000000000000       0.0000000000000    
  0.0000000000000       0.0000000000000    
  0.0000000000000       0.0000000000000    
  0.0000000000000       0.0000000000000    
  0.0000000000000       0.0000000000000    
  0.0000000000000       0.0000000000000    
  0.0000000000000       0.0000000000000    
  0.0000000000000       0.0000000000000    
  0.0000000000000       0.0000000000000    
  0.0000000000000       0.0000000000000    
  0.0000000000000       0.0000000000000    
  0.0000000000000       0.0000000000000    
  0.0000000000000       0.0000000000000    
  0.0000000000000       0.0000000000000    
  0.0000000000000       0.0000000000000    
  0.0000000000000       0.0000000000000    
  0.0000000000000       0.0000000000000    
  0.0000000000000       0.0000000000000    
  0.0000000000000       0.0000000000000    
  0.0000000000000       0.0000000000000    
  0.0000000000000       0.0000000000000    
  0.0000000000000       0.0000000000000    
ZONE T= "Xw:     39.9300      Yw:     22.4100      Rw:    0.500000      Zwbot:     12.5000      Zwtop:     15.0000       Specie:  1 "
 0.10555500000000       5.6457142857144    
  4.3055550000000       3.9771428571428    
  8.5055550000000       4.1866666666666    
  12.705555000000       4.8800000000000    
  16.905555000000       5.3523809523810    
  21.105555000000       11.531428571429    
  25.305555000000       5.6228571428572    
  29.505555000000       11.188571428572    
  33.705555000000       13.238095238096    
  37.905555000000       11.881904761905    
  42.105555000000       9.3447619047623    
  46.305555000000       8.9066666666670    
  50.505555000000       10.320000000000    
  54.705555000000       6.4342857142859    
  58.905555000000       9.3180952380956    
  63.105555000000       11.287619047620    
  67.305555000000       15.234285714287    
  71.505555000000       6.0761904761906    
  75.705555000000       11.737142857143    
  79.905555000000       10.129523809524    
  84.105555000000       6.5600000000002    
  88.305555000000       9.0400000000004    
  92.505555000000       5.7104761904763    
  96.705555000000       8.0114285714289    
  100.90555500000       6.0800000000001    
  105.10555500000       3.5504761904761    
  109.30555500000       4.8723809523810    
  113.50555500000       2.5066666666666    
  117.70555500000       3.5314285714285    
  121.90555500000       2.6590476190476    
  126.10555500000       1.7219047619047    
  130.30555500000       2.7009523809523    
  134.50555500000       1.3028571428571    
  138.70555500000       1.6342857142857    
  142.90555500000       1.3980952380952    
  147.10555500000      0.76571428571429    
  151.30555500000       1.1695238095238    
  155.50555500000      0.58666666666667    
ZONE T= "Xw:     39.9300      Yw:     22.4100      Rw:    0.500000      Zwbot:     12.5000      Zwtop:     15.0000       Specie:  2 "
  0.0000000000000       0.0000000000000    
  0.0000000000000       0.0000000000000    
  0.0000000000000       0.0000000000000    
  0.0000000000000       0.0000000000000    
  0.0000000000000       0.0000000000000    
  0.0000000000000       0.0000000000000    
  0.0000000000000       0.0000000000000    
  0.0000000000000       0.0000000000000    
  0.0000000000000       0.0000000000000    
  0.0000000000000       0.0000000000000    
  0.0000000000000       0.0000000000000    
  0.0000000000000       0.0000000000000    
  0.0000000000000       0.0000000000000    
  0.0000000000000       0.0000000000000    
  0.0000000000000       0.0000000000000    
  0.0000000000000       0.0000000000000    
  0.0000000000000       0.0000000000000    
  0.0000000000000       0.0000000000000    
  0.0000000000000       0.0000000000000    
  0.0000000000000       0.0000000000000    
  0.0000000000000       0.0000000000000    
  0.0000000000000       0.0000000000000    
  0.0000000000000       0.0000000000000    
  0.0000000000000       0.0000000000000    
  0.0000000000000       0.0000000000000    
  0.0000000000000       0.0000000000000    
  0.0000000000000       0.0000000000000    
  0.0000000000000       0.0000000000000    
  0.0000000000000       0.0000000000000    
  0.0000000000000       0.0000000000000    
  0.0000000000000       0.0000000000000    
  0.0000000000000       0.0000000000000    
  0.0000000000000       0.0000000000000    
  0.0000000000000       0.0000000000000    
  0.0000000000000       0.0000000000000    
  0.0000000000000       0.0000000000000    
  0.0000000000000       0.0000000000000    
  0.0000000000000       0.0000000000000    
ZONE T= "Xw:     39.9300      Yw:     22.4100      Rw:    0.500000      Zwbot:     12.5000      Zwtop:     15.0000       Specie:  3 "
  0.0000000000000       0.0000000000000    
  0.0000000000000       0.0000000000000    
  0.0000000000000       0.0000000000000    
  0.0000000000000       0.0000000000000    
  0.0000000000000       0.0000000000000    