 TITLE="TECPLOT input file: Breakthrough Curves" 
 VARIABLES="Time" "Concentrations" 
ZONE T= "Xw:     39.9300      Yw:     22.4100      Rw:    0.100000      Zwbot:     16.5000      Zwtop:     17.0000       Specie:  1 "
 0.40000000000000       0.0000000000000    
 0.80000000000000       0.0000000000000    
  1.2000000000000       0.0000000000000    
  1.6000000000000       0.0000000000000    
  2.0000000000000       0.0000000000000    
  2.4000000000000       0.0000000000000    
  2.8000000000000       0.0000000000000    
  3.2000000000000       0.0000000000000    
  3.6000000000000       0.0000000000000    
  4.0000000000000       0.0000000000000    
  4.4000000000000       0.0000000000000    
  4.8000000000000       0.0000000000000    
  5.2000000000000       0.0000000000000    
  5.6000000000000       0.0000000000000    
  6.0000000000000       0.0000000000000    
  6.4000000000000       0.0000000000000    
  6.8000000000000       0.0000000000000    
  7.2000000000000       0.0000000000000    
  7.6000000000000       0.0000000000000    
  8.0000000000000       0.0000000000000    
  8.4000000000000       0.0000000000000    
  8.8000000000000       0.0000000000000    
  9.2000000000000       0.0000000000000    
  9.6000000000000       0.0000000000000    
  10.000000000000       0.0000000000000    
  10.400000000000       0.0000000000000    
  10.800000000000       0.0000000000000    
  11.200000000000       0.0000000000000    
  11.600000000000       0.0000000000000    
  12.000000000000       0.0000000000000    
  12.400000000000       0.0000000000000    
  12.800000000000       0.0000000000000    
  13.200000000000       0.0000000000000    
  13.600000000000       0.0000000000000    
  14.000000000000       0.0000000000000    
  14.400000000000       0.0000000000000    
  14.800000000000       0.0000000000000    
  15.200000000000       0.0000000000000    
  15.600000000000       0.0000000000000    
  16.000000000000       0.0000000000000    
  16.400000000000       0.0000000000000    
  16.800000000000       0.0000000000000    
  17.200000000000       0.0000000000000    
  17.600000000000       0.0000000000000    
  18.000000000000       2.4899439178444    
  18.400000000000       4.9798878356888    
  18.800000000000       9.9396418983019    
  19.200000000000       0.0000000000000    
  19.600000000000       7.5254192839760    
  20.000000000000       0.0000000000000    
ZONE T= "Xw:     39.9300      Yw:     22.4100      Rw:    0.100000      Zwbot:     13.5000      Zwtop:     14.0000       Specie:  1 "
 0.40000000000000       0.0000000000000    
 0.80000000000000       0.0000000000000    
  1.2000000000000       0.0000000000000    
  1.6000000000000       0.0000000000000    
  2.0000000000000       0.0000000000000    
  2.4000000000000       0.0000000000000    
  2.8000000000000       0.0000000000000    
  3.2000000000000       0.0000000000000    
  3.6000000000000       0.0000000000000    
  4.0000000000000       0.0000000000000    
  4.4000000000000       0.0000000000000    
  4.8000000000000       0.0000000000000    
  5.2000000000000       0.0000000000000    
  5.6000000000000       0.0000000000000    
  6.0000000000000       0.0000000000000    
  6.4000000000000       0.0000000000000    
  6.8000000000000       0.0000000000000    
  7.2000000000000       0.0000000000000    
  7.6000000000000       0.0000000000000    
  8.0000000000000       0.0000000000000    
  8.4000000000000       0.0000000000000    
  8.8000000000000       0.0000000000000    
  9.2000000000000       0.0000000000000    
  9.6000000000000       0.0000000000000    
  10.000000000000       0.0000000000000    
  10.400000000000       0.0000000000000    
  10.800000000000       0.0000000000000    
  11.200000000000       0.0000000000000    
  11.600000000000       0.0000000000000    
  12.000000000000       2.4881276579990    
  12.400000000000       2.4881276579990    
  12.800000000000       0.0000000000000    
  13.200000000000       2.4901781421825    
  13.600000000000       7.4705344265475    
  14.000000000000       0.0000000000000    
  14.400000000000       0.0000000000000    
  14.800000000000       0.0000000000000    
  15.200000000000       4.9360795034824    
  15.600000000000       0.0000000000000    
  16.000000000000       0.0000000000000    
  16.400000000000       0.0000000000000    
  16.800000000000       2.5051393707703    
  17.200000000000       7.4124214111378    
  17.600000000000       9.9444966943575    
  18.000000000000       7.4445231238977    
  18.400000000000       4.9779163560884    
  18.800000000000       17.401788820007    
  19.200000000000       2.4964086481225    
  19.600000000000       0.0000000000000    
  20.000000000000       2.4866918970613    
ZONE T= "Xw:     39.9300      Yw:     22.3100      Rw:    0.100000      Zwbot:     10.5000      Zwtop:     11.0000       Specie:  1 "
 0.40000000000000       0.0000000000000    
 0.80000000000000       0.0000000000000    
  1.2000000000000       0.0000000000000    
  1.6000000000000       0.0000000000000    
  2.0000000000000       0.0000000000000    
  2.4000000000000       0.0000000000000    
  2.8000000000000       0.0000000000000    
  3.2000000000000       0.0000000000000    
  3.6000000000000       0.0000000000000    
  4.0000000000000       0.0000000000000    
  4.4000000000000       2.4832326601525    
  4.8000000000000       2.4832326601525    
  5.2000000000000       0.0000000000000    
  5.6000000000000       12.488942176436    
  6.0000000000000       14.992684515186    
  6.4000000000000       20.035874001177    
  6.8000000000000       9.9927486205262    
  7.2000000000000       24.975517948445    
  7.6000000000000       22.610179425159    
  8.0000000000000       15.052173279362    
  8.4000000000000       22.596850889594    
  8.8000000000000       22.570321593182    
  9.2000000000000       27.502028633991    
  9.6000000000000       37.533132540370    
  10.000000000000       22.393352384009    
  10.400000000000       37.478896188696    
  10.800000000000       22.453811159235    
  11.200000000000       34.889820634843    
  11.600000000000       59.996406648035    
  12.000000000000       50.030579098610    
  12.400000000000       32.587532831310    
  12.800000000000       25.129582963532    
  13.200000000000       27.622490150504    
  13.600000000000       29.981581520660    
  14.000000000000       42.580208726590    
  14.400000000000       37.444118331420    
  14.800000000000       9.9795794291856    
  15.200000000000       12.531009339208    
  15.600000000000       25.047618362289    
  16.000000000000       12.562687692110    
  16.400000000000       25.060454771559    
  16.800000000000       12.525800665983    
  17.200000000000       4.9933827798913    
  17.600000000000       9.9990517773359    
  18.000000000000       2.4779248166069    
  18.400000000000       2.4862231270168    
  18.800000000000       2.4779248166069    
  19.200000000000       17.521017340535    
  19.600000000000       7.5054698324658    
  20.000000000000       0.0000000000000    
ZONE T= "Xw:     40.0300      Yw:     22.4100      Rw:    0.100000      Zwbot:     7.60000      Zwtop:     8.10000       Specie:  1 "
 0.40000000000000       0.0000000000000    
 0.80000000000000       0.0000000000000    
  1.2000000000000       0.0000000000000    
  1.6000000000000       0.0000000000000    
  2.0000000000000       0.0000000000000    
  2.4000000000000       0.0000000000000    
  2.8000000000000       0.0000000000000    
  3.2000000000000       0.0000000000000    
  3.6000000000000       0.0000000000000    
  4.0000000000000       0.0000000000000    
  4.4000000000000       7.5336671487654    
  4.8000000000000       4.9407906287716    
  5.2000000000000       2.5112223829218    
  5.6000000000000       0.0000000000000    
  6.0000000000000       0.0000000000000    
  6.4000000000000       0.0000000000000    
  6.8000000000000       14.959280449001    
  7.2000000000000       12.572012973927    
  7.6000000000000       25.076840628126    
  8.0000000000000       9.9780234287324    
  8.4000000000000       17.501569395924    
  8.8000000000000       32.446290868818    
  9.2000000000000       14.972816284573    
  9.6000000000000       37.554006297469    
  10.000000000000       39.968397903872    
  10.400000000000       44.932816031990    
  10.800000000000       64.922498555333    
  11.200000000000       62.520085093199    
  11.600000000000       67.467878360317    
  12.000000000000       72.528915019821    
  12.400000000000       44.843224461458    
  12.800000000000       32.464557967185    
  13.200000000000       69.939366516341    
  13.600000000000       39.889138718204    
  14.000000000000       55.082539082720    
  14.400000000000       30.111831497941    
  14.800000000000       37.591267577033    
  15.200000000000       20.112374344754    
  15.600000000000       7.4879873892109    
  16.000000000000       17.511343761483    
  16.400000000000       12.489102295772    
  16.800000000000       17.508632230729    
  17.200000000000       32.524676651091    
  17.600000000000       0.0000000000000    
  18.000000000000       22.619264516955    
  18.400000000000       7.5125329224199    
  18.800000000000       0.0000000000000    
  19.200000000000       2.5155902950003    
  19.600000000000       0.0000000000000    
  20.000000000000       0.0000000000000    
ZONE T= "Xw:     39.9300      Yw:     22.4100      Rw:    0.100000      Zwbot:     4.50000      Zwtop:     5.00000       Specie:  1 "
 0.40000000000000       0.0000000000000    
 0.80000000000000       0.0000000000000    
  1.2000000000000       0.0000000000000    
  1.6000000000000       0.0000000000000    
  2.0000000000000       0.0000000000000    
  2.4000000000000       0.0000000000000    
  2.8000000000000       0.0000000000000    
  3.2000000000000       0.0000000000000    
  3.6000000000000       0.0000000000000    
  4.0000000000000       0.0000000000000    
  4.4000000000000       5.0055458996280    
  4.8000000000000       7.4837949437417    
  5.2000000000000       17.507245448864    
  5.6000000000000       27.499233703178    
  6.0000000000000       32.534162542331    
  6.4000000000000       29.955015506769    
  6.8000000000000       22.417335395810    
  7.2000000000000       9.9581479985652    
  7.6000000000000       24.862722640845    
  8.0000000000000       52.568509527284    
  8.4000000000000       47.663536757902    
  8.8000000000000       40.020262611273    
  9.2000000000000       50.167324162286    
  9.6000000000000       60.058601710930    
  10.000000000000       49.960958154251    
  10.400000000000       27.524416632259    
  10.800000000000       47.506790031512    
  11.200000000000       14.947695943611    
  11.600000000000       57.528754218440    
  12.000000000000       60.034227013659    
  12.400000000000       44.981948649627    
  12.800000000000       20.047984393751    
  13.200000000000       34.886736751877    
  13.600000000000       7.4438589309658    
  14.000000000000       19.929504516972    
  14.400000000000       2.4838119227817    
  14.800000000000       19.894500079767    
  15.200000000000       5.0107142071399    
  15.600000000000       4.9937076418061    
  16.000000000000       4.9926010765920    
  16.400000000000       15.035195905394    
  16.800000000000       12.505140181286    
  17.200000000000       2.5215506270177    
  17.600000000000       0.0000000000000    
  18.000000000000       5.0240751266909    
  18.400000000000       12.563028219746    
  18.800000000000       5.0023534642738    
  19.200000000000       10.060224194093    
  19.600000000000       0.0000000000000    
  20.000000000000       0.0000000000000    
ZONE T= "Xw:     39.8300      Yw:     28.4100      Rw:    0.100000      Zwbot:     16.5000      Zwtop:     17.0000       Specie:  1 "
 0.40000000000000       0.0000000000000    
 0.80000000000000       0.0000000000000    
  1.2000000000000       0.0000000000000    
  1.6000000000000       0.0000000000000    
  2.0000000000000       0.0000000000000    
  2.4000000000000       0.0000000000000    
  2.8000000000000       7.4402628939744    
  3.2000000000000       7.4864094593454    
  3.6000000000000       2.5262341966958    
  4.0000000000000       0.0000000000000    
  4.4000000000000       5.0524683933916    
  4.8000000000000       2.5262341966958    
  5.2000000000000       9.9731124767694    
  5.6000000000000       10.124782945081    
  6.0000000000000       7.5466867937721    
  6.4000000000000       7.4429628845464    
  6.8000000000000       14.997864971361    
  7.2000000000000       19.916329229186    
  7.6000000000000       2.5288923398002    
  8.0000000000000       10.045352367974    
  8.4000000000000       27.442630949418    
  8.8000000000000       37.655056693450    
  9.2000000000000       17.453622558216    
  9.6000000000000       15.056065511673    
  10.000000000000       42.488529291691    
  10.400000000000       34.958986417454    
  10.800000000000       34.903317369457    
  11.200000000000       32.501882869269    
  11.600000000000       40.001970810737    
  12.000000000000       27.430177161602    
  12.400000000000       34.956534393608    
  12.800000000000       25.153234294272    
  13.200000000000       22.545180260146    
  13.600000000000       12.450840920267    
  14.000000000000       32.410704478494    
  14.400000000000       24.965521895977    
  14.800000000000       27.710930561032    
  15.200000000000       22.466777068064    
  15.600000000000       22.320582310601    
  16.000000000000       12.445359808650    
  16.400000000000       14.891882393328    
  16.800000000000       12.336474954135    
  17.200000000000       19.819114527215    
  17.600000000000       14.999376533333    
  18.000000000000       17.487233848524    
  18.400000000000       14.847974539042    
  18.800000000000       4.9617006182567    
  19.200000000000       2.4700313550206    
  19.600000000000       12.447129130040    
  20.000000000000       7.5282211605685    
ZONE T= "Xw:     39.9300      Yw:     28.4100      Rw:    0.100000      Zwbot:     13.5000      Zwtop:     14.0000       Specie:  1 "
 0.40000000000000       0.0000000000000    
 0.80000000000000       0.0000000000000    
  1.2000000000000       0.0000000000000    
  1.6000000000000       0.0000000000000    
  2.0000000000000       0.0000000000000    
  2.4000000000000       0.0000000000000    
  2.8000000000000       0.0000000000000    
  3.2000000000000       0.0000000000000    
  3.6000000000000       0.0000000000000    
  4.0000000000000       0.0000000000000    
  4.4000000000000       0.0000000000000    
  4.8000000000000       0.0000000000000    
  5.2000000000000       0.0000000000000    
  5.6000000000000       0.0000000000000    
  6.0000000000000       0.0000000000000    
  6.4000000000000       0.0000000000000    
  6.8000000000000       0.0000000000000    
  7.2000000000000       0.0000000000000    
  7.6000000000000       0.0000000000000    
  8.0000000000000       2.4769530617063    
  8.4000000000000       0.0000000000000    
  8.8000000000000       0.0000000000000    
  9.2000000000000       0.0000000000000    
  9.6000000000000       0.0000000000000    
  10.000000000000       0.0000000000000    
  10.400000000000       0.0000000000000    
  10.800000000000       0.0000000000000    
  11.200000000000       0.0000000000000    
  11.600000000000       0.0000000000000    
  12.000000000000       0.0000000000000    
  12.400000000000       0.0000000000000    
  12.800000000000       2.5190339659750    
  13.200000000000       2.5190339659750    
  13.600000000000       7.5629441401101    
  14.000000000000       2.5248762081601    
  14.400000000000       2.4887304092021    
  14.800000000000       0.0000000000000    
  15.200000000000       0.0000000000000    
  15.600000000000       2.4947113516656    
  16.000000000000       0.0000000000000    
  16.400000000000       7.5588577887706    
  16.800000000000       5.0208036277546    
  17.200000000000       0.0000000000000    
  17.600000000000       2.5014992795251    
  18.000000000000       2.5014992795251    
  18.400000000000       5.0335724980775    
  18.800000000000       0.0000000000000    
  19.200000000000       0.0000000000000    
  19.600000000000       2.4836399502029    
  20.000000000000       0.0000000000000    
ZONE T= "Xw:     39.8300      Yw:     28.4100      Rw:    0.100000      Zwbot:     10.6000      Zwtop:     11.2000       Specie:  1 "
 0.40000000000000       0.0000000000000    
 0.80000000000000       0.0000000000000    
  1.2000000000000       0.0000000000000    
  1.6000000000000       0.0000000000000    
  2.0000000000000       2.4982153020233    
  2.4000000000000       0.0000000000000    
  2.8000000000000       9.9980913344209    
  3.2000000000000       17.500101464787    
  3.6000000000000       19.994452297042    
  4.0000000000000       7.4708569134795    
  4.4000000000000       24.916641910847    
  4.8000000000000       7.4976665406768    
  5.2000000000000       27.596111302842    
  5.6000000000000       35.020882703318    
  6.0000000000000       57.430209278240    
  6.4000000000000       47.621820406429    
  6.8000000000000       32.524119528103    
  7.2000000000000       27.553859823512    
  7.6000000000000       27.445011108697    
  8.0000000000000       22.624234233189    
  8.4000000000000       27.505917755871    
  8.8000000000000       25.106294535537    
  9.2000000000000       30.145084906460    
  9.6000000000000       22.444667545447    
  10.000000000000       39.973521256388    
  10.400000000000       29.944875456783    
  10.800000000000       32.518679425897    
  11.200000000000       30.006216080922    
  11.600000000000       22.644841660435    
  12.000000000000       22.719684781508    
  12.400000000000       52.547265207971    
  12.800000000000       30.136380004857    
  13.200000000000       22.556808155210    
  13.600000000000       25.168128465849    
  14.000000000000       20.097099745322    
  14.400000000000       0.0000000000000    
  14.800000000000       22.540609586377    
  15.200000000000       12.528316059349    
  15.600000000000       22.531933798884    
  16.000000000000       20.075583643129    
  16.400000000000       12.508849676223    
  16.800000000000       32.415695895139    
  17.200000000000       14.967053047606    
  17.600000000000       14.981540445699    
  18.000000000000       17.385890026107    
  18.400000000000       12.464893253951    
  18.800000000000       12.519324075450    
  19.200000000000       17.349299211216    
  19.600000000000       10.037186377646    
  20.000000000000       4.9848686431750    
ZONE T= "Xw:     39.8300      Yw:     28.4100      Rw:    0.100000      Zwbot:     7.60000      Zwtop:     8.30000       Specie:  1 "
 0.40000000000000       0.0000000000000    
 0.80000000000000       0.0000000000000    
  1.2000000000000       0.0000000000000    
  1.6000000000000       0.0000000000000    
  2.0000000000000       2.4889515700130    
  2.4000000000000       2.4889515700130    
  2.8000000000000       0.0000000000000    
  3.2000000000000       9.9914100598785    
  3.6000000000000       12.569407628003    
  4.0000000000000       7.5024584898656    
  4.4000000000000       7.5312909640769    
  4.8000000000000       2.5245553498396    
  5.2000000000000       12.441469631812    
  5.6000000000000       5.0235447550092    
  6.0000000000000       12.426212996837    
  6.4000000000000       20.016059965839    
  6.8000000000000       7.5854455781560    
  7.2000000000000       12.607010456650    
  7.6000000000000       17.498793436767    
  8.0000000000000       22.626444637362    
  8.4000000000000       9.9812835561384    
  8.8000000000000       17.592302397639    
  9.2000000000000       32.502421940010    
  9.6000000000000       62.370609216167    
  10.000000000000       54.961138562685    
  10.400000000000       22.371700831009    
  10.800000000000       37.418678120544    
  11.200000000000       60.007515462894    
  11.600000000000       39.916922986805    
  12.000000000000       37.426688933543    
  12.400000000000       37.472603254978    
  12.800000000000       20.002385012663    
  13.200000000000       44.784724523508    
  13.600000000000       49.880389779209    
  14.000000000000       34.882599177533    
  14.400000000000       20.043018441366    
  14.800000000000       12.562575696284    
  15.200000000000       7.5746486815898    
  15.600000000000       12.542814345225    
  16.000000000000       32.458205077360    
  16.400000000000       22.419010984443    
  16.800000000000       9.9708038283131    
  17.200000000000       14.952855221163    
  17.600000000000       27.616935823652    
  18.000000000000       22.562037242467    
  18.400000000000       17.523098886266    
  18.800000000000       47.627292909928    
  19.200000000000       27.543743752338    
  19.600000000000       17.495930605620    
  20.000000000000       5.0122369970818    
ZONE T= "Xw:     39.8300      Yw:     28.5100      Rw:    0.100000      Zwbot:     4.50000      Zwtop:     5.00000       Specie:  1 "
 0.40000000000000       7.5470180374658    
 0.80000000000000       2.5258413998783    
  1.2000000000000       2.4682893116308    
  1.6000000000000       20.089032879304    
  2.0000000000000       17.449109306646    
  2.4000000000000       22.582601386058    
  2.8000000000000       27.622436759059    
  3.2000000000000       47.512300784341    
  3.6000000000000       42.666636097827    
  4.0000000000000       32.490432308210    
  4.4000000000000       27.527419909207    
  4.8000000000000       32.534257952651    
  5.2000000000000       27.656813471889    
  5.6000000000000       22.628328345322    
  6.0000000000000       20.139808098428    
  6.4000000000000       30.197515285117    
  6.8000000000000       12.604665835895    
  7.2000000000000       17.508687827464    
  7.6000000000000       19.955554497135    
  8.0000000000000       27.562476357866    
  8.4000000000000       47.358843663096    
  8.8000000000000       22.550255845448    
  9.2000000000000       24.927927587315    
  9.6000000000000       30.092817986066    
  10.000000000000       24.946969118407    
  10.400000000000       35.103631958850    
  10.800000000000       27.525228720543    
  11.200000000000       17.509731003271    
  11.600000000000       22.736634133439    
  12.000000000000       20.069294458763    
  12.400000000000       7.5075365850520    
  12.800000000000       12.609193167199    
  13.200000000000       17.575981430401    
  13.600000000000       15.071145111434    
  14.000000000000       9.9971127680077    
  14.400000000000       12.584437938849    
  14.800000000000       12.539953386182    
  15.200000000000       9.9529786493973    
  15.600000000000       5.0456351646192    
  16.000000000000       0.0000000000000    
  16.400000000000       0.0000000000000    
  16.800000000000       5.0238258841947    
  17.200000000000       0.0000000000000    
  17.600000000000       2.5010083018851    
  18.000000000000       0.0000000000000    
  18.400000000000       0.0000000000000    
  18.800000000000       0.0000000000000    
  19.200000000000       0.0000000000000    
  19.600000000000       0.0000000000000    
  20.000000000000       0.0000000000000    
ZONE T= "Xw:     39.5300      Yw:     34.0100      Rw:    0.100000      Zwbot:     16.7000      Zwtop:     17.3000       Specie:  1 "
 0.40000000000000       0.0000000000000    
 0.80000000000000       0.0000000000000    
  1.2000000000000       0.0000000000000    
  1.6000000000000       0.0000000000000    
  2.0000000000000       0.0000000000000    
  2.4000000000000       7.5681045538498    
  2.8000000000000       7.4783857618973    
  3.2000000000000       10.036866672733    
  3.6000000000000       4.9933495369552    
  4.0000000000000       15.026055402846    
  4.4000000000000       5.0114159428913    
  4.8000000000000       9.9737352140197    
  5.2000000000000       22.593056762505    
  5.6000000000000       20.029013661148    
  6.0000000000000       9.9370582023312    
  6.4000000000000       9.9511542581851    
  6.8000000000000       2.5237109908438    
  7.2000000000000       4.9953290480669    
  7.6000000000000       22.440345406449    
  8.0000000000000       17.446142335171    
  8.4000000000000       27.627390022279    
  8.8000000000000       12.576978997495    
  9.2000000000000       10.073313039769    
  9.6000000000000       20.063219161631    
  10.000000000000       24.993026923982    
  10.400000000000       25.105477697454    
  10.800000000000       27.588314720609    
  11.200000000000       17.504899437469    
  11.600000000000       7.4705499876001    
  12.000000000000       25.053519364090    
  12.400000000000       29.934457688668    
  12.800000000000       15.053403888290    
  13.200000000000       25.013090820734    
  13.600000000000       12.460611358710    
  14.000000000000       14.980679945451    
  14.400000000000       22.518220521155    
  14.800000000000       15.062040475627    
  15.200000000000       20.123981817612    
  15.600000000000       7.5409917341736    
  16.000000000000       7.4963172842707    
  16.400000000000       12.499861345230    
  16.800000000000       9.9864982375420    
  17.200000000000       27.518126863020    
  17.600000000000       14.902938821265    
  18.000000000000       15.002034822123    
  18.400000000000       9.9534356430712    
  18.800000000000       10.045833883317    
  19.200000000000       2.5207588481321    
  19.600000000000       0.0000000000000    
  20.000000000000       7.5734458914512    
ZONE T= "Xw:     39.5300      Yw:     34.1100      Rw:    0.100000      Zwbot:     13.5000      Zwtop:     14.0000       Specie:  1 "
 0.40000000000000       0.0000000000000    
 0.80000000000000       0.0000000000000    
  1.2000000000000       0.0000000000000    
  1.6000000000000       0.0000000000000    
  2.0000000000000       0.0000000000000    
  2.4000000000000       0.0000000000000    
  2.8000000000000       0.0000000000000    
  3.2000000000000       0.0000000000000    
  3.6000000000000       0.0000000000000    
  4.0000000000000       0.0000000000000    
  4.4000000000000       2.4834401613622    
  4.8000000000000       0.0000000000000    
  5.2000000000000       2.4974240005992    
  5.6000000000000       4.9948480011983    
  6.0000000000000       7.5293332921360    
  6.4000000000000       7.5108026469668    
  6.8000000000000       10.052674497595    
  7.2000000000000       9.9310523352954    
  7.6000000000000       2.5233412054591    
  8.0000000000000       12.616706027295    
  8.4000000000000       2.4747254439192    
  8.8000000000000       7.5317220949712    
  9.2000000000000       20.025890427599    
  9.6000000000000       7.6009663367787    
  10.000000000000       12.504354353891    
  10.400000000000       4.9582440772299    
  10.800000000000       0.0000000000000    
  11.200000000000       4.9448514088082    
  11.600000000000       7.4879737271469    
  12.000000000000       0.0000000000000    
  12.400000000000       2.4905601303000    
  12.800000000000       9.9772383575144    
  13.200000000000       24.913667497687    
  13.600000000000       12.488067623706    
  14.000000000000       9.9244592786654    
  14.400000000000       9.9042404225986    
  14.800000000000       14.953974419275    
  15.200000000000       34.989868551059    
  15.600000000000       24.953202510700    
  16.000000000000       44.903427071922    
  16.400000000000       34.902218511312    
  16.800000000000       59.760427848057    
  17.200000000000       42.379439812940    
  17.600000000000       39.850702771305    
  18.000000000000       27.482355019967    
  18.400000000000       12.532253438370    
  18.800000000000       14.966838862657    
  19.200000000000       22.390361462689    
  19.600000000000       19.850638744493    
  20.000000000000       17.476814839779    
ZONE T= "Xw:     39.4300      Yw:     34.0100      Rw:    0.100000      Zwbot:     10.5000      Zwtop:     11.1000       Specie:  1 "
 0.40000000000000       40.209496275397    
 0.80000000000000       5.0472918929067    
  1.2000000000000       12.502817587175    
  1.6000000000000       9.9744873084567    
  2.0000000000000       27.498653945859    
  2.4000000000000       15.018886983804    
  2.8000000000000       27.524888878505    
  3.2000000000000       9.9887757700585    
  3.6000000000000       27.436996080414    
  4.0000000000000       35.035138955161    
  4.4000000000000       32.549143958022    
  4.8000000000000       29.883334408688    
  5.2000000000000       47.307917793812    
  5.6000000000000       29.990876066998    
  6.0000000000000       67.400896626155    
  6.4000000000000       35.034112156242    
  6.8000000000000       45.039529012937    
  7.2000000000000       20.092413954426    
  7.6000000000000       17.537279871111    
  8.0000000000000       42.636540197931    
  8.4000000000000       24.961367995282    
  8.8000000000000       32.400403135216    
  9.2000000000000       29.826764027454    
  9.6000000000000       32.357751086048    
  10.000000000000       27.448578274893    