 TITLE="TECPLOT input file: Breakthrough Curves" 
 VARIABLES="Time" "Concentrations" 
ZONE T= "Xw:     39.9300      Yw:     22.4100      Rw:    0.100000      Zwbot:     16.5000      Zwtop:     17.0000       Specie:  1 "
 0.40000000000000       0.0000000000000    
 0.80000000000000       0.0000000000000    
  1.2000000000000       0.0000000000000    
  1.6000000000000       0.0000000000000    
  2.0000000000000       0.0000000000000    
  2.4000000000000       0.0000000000000    
  2.8000000000000       0.0000000000000    
  3.2000000000000       0.0000000000000    
  3.6000000000000       0.0000000000000    
  4.0000000000000       0.0000000000000    
  4.4000000000000       0.0000000000000    
  4.8000000000000       0.0000000000000    
  5.2000000000000       0.0000000000000    
  5.6000000000000       0.0000000000000    
  6.0000000000000       0.0000000000000    
  6.4000000000000       0.0000000000000    
  6.8000000000000       0.0000000000000    
  7.2000000000000       0.0000000000000    
  7.6000000000000       0.0000000000000    
  8.0000000000000       0.0000000000000    
  8.4000000000000       0.0000000000000    
  8.8000000000000       0.0000000000000    
  9.2000000000000       0.0000000000000    
  9.6000000000000       0.0000000000000    
  10.000000000000       0.0000000000000    
  10.400000000000       0.0000000000000    
  10.800000000000       0.0000000000000    
  11.200000000000       0.0000000000000    
  11.600000000000       0.0000000000000    
  12.000000000000       0.0000000000000    
  12.400000000000       0.0000000000000    
  12.800000000000       0.0000000000000    
  13.200000000000       0.0000000000000    
  13.600000000000       0.0000000000000    
  14.000000000000       0.0000000000000    
  14.400000000000       0.0000000000000    
  14.800000000000       0.0000000000000    
  15.200000000000       0.0000000000000    
  15.600000000000       0.0000000000000    
  16.000000000000       0.0000000000000    
  16.400000000000       0.0000000000000    
  16.800000000000       0.0000000000000    
  17.200000000000       0.0000000000000    
  17.600000000000       2.5040052179583    
  18.000000000000       5.0080104359166    
  18.400000000000       5.0080104359166    
  18.800000000000       5.0080104359166    
  19.200000000000       0.0000000000000    
  19.600000000000       7.5120156538749    
  20.000000000000       0.0000000000000    
ZONE T= "Xw:     39.9300      Yw:     22.4100      Rw:    0.100000      Zwbot:     13.5000      Zwtop:     14.0000       Specie:  1 "
 0.40000000000000       0.0000000000000    
 0.80000000000000       0.0000000000000    
  1.2000000000000       0.0000000000000    
  1.6000000000000       0.0000000000000    
  2.0000000000000       0.0000000000000    
  2.4000000000000       0.0000000000000    
  2.8000000000000       0.0000000000000    
  3.2000000000000       0.0000000000000    
  3.6000000000000       0.0000000000000    
  4.0000000000000       0.0000000000000    
  4.4000000000000       0.0000000000000    
  4.8000000000000       0.0000000000000    
  5.2000000000000       0.0000000000000    
  5.6000000000000       0.0000000000000    
  6.0000000000000       0.0000000000000    
  6.4000000000000       0.0000000000000    
  6.8000000000000       0.0000000000000    
  7.2000000000000       0.0000000000000    
  7.6000000000000       0.0000000000000    
  8.0000000000000       0.0000000000000    
  8.4000000000000       0.0000000000000    
  8.8000000000000       0.0000000000000    
  9.2000000000000       0.0000000000000    
  9.6000000000000       0.0000000000000    
  10.000000000000       0.0000000000000    
  10.400000000000       0.0000000000000    
  10.800000000000       0.0000000000000    
  11.200000000000       0.0000000000000    
  11.600000000000       0.0000000000000    
  12.000000000000       0.0000000000000    
  12.400000000000       0.0000000000000    
  12.800000000000       0.0000000000000    
  13.200000000000       0.0000000000000    
  13.600000000000       0.0000000000000    
  14.000000000000       0.0000000000000    
  14.400000000000       0.0000000000000    
  14.800000000000       5.0029807444237    
  15.200000000000       4.9609795076798    
  15.600000000000       7.4624698798917    
  16.000000000000       2.5014903722119    
  16.400000000000       2.5014903722119    
  16.800000000000       7.5007984256933    
  17.200000000000       2.4996540267407    
  17.600000000000       4.9993080534814    
  18.000000000000       0.0000000000000    
  18.400000000000       7.4989620802221    
  18.800000000000       0.0000000000000    
  19.200000000000       0.0000000000000    
  19.600000000000       5.0106727730288    
  20.000000000000       10.013653517453    
ZONE T= "Xw:     39.9300      Yw:     22.3100      Rw:    0.100000      Zwbot:     10.5000      Zwtop:     11.0000       Specie:  1 "
 0.40000000000000       0.0000000000000    
 0.80000000000000       0.0000000000000    
  1.2000000000000       0.0000000000000    
  1.6000000000000       0.0000000000000    
  2.0000000000000       0.0000000000000    
  2.4000000000000       0.0000000000000    
  2.8000000000000       0.0000000000000    
  3.2000000000000       0.0000000000000    
  3.6000000000000       0.0000000000000    
  4.0000000000000       0.0000000000000    
  4.4000000000000       2.4839651626492    
  4.8000000000000       9.9409054031135    
  5.2000000000000       12.438988955411    
  5.6000000000000       7.4494840954073    
  6.0000000000000       14.931251993635    
  6.4000000000000       22.380986909735    
  6.8000000000000       9.9848916053982    
  7.2000000000000       12.480933326271    
  7.6000000000000       9.9863887125696    
  8.0000000000000       34.918898881642    
  8.4000000000000       34.926788312284    
  8.8000000000000       27.421329531921    
  9.2000000000000       27.468826642244    
  9.6000000000000       39.864292871397    
  10.000000000000       44.973858254410    
  10.400000000000       44.958191046490    
  10.800000000000       27.456083396695    
  11.200000000000       25.052785000160    
  11.600000000000       25.028934587141    
  12.000000000000       30.005273729252    
  12.400000000000       17.499219406282    
  12.800000000000       24.956324892003    
  13.200000000000       32.452630019389    
  13.600000000000       25.008811654358    
  14.000000000000       22.485279515041    
  14.400000000000       20.014667856735    
  14.800000000000       10.025430182902    
  15.200000000000       7.5563033329242    
  15.600000000000       10.021189017273    
  16.000000000000       15.010586454085    
  16.400000000000       0.0000000000000    
  16.800000000000       7.4841043002111    
  17.200000000000       7.5178861351636    
  17.600000000000       12.423546174745    
  18.000000000000       12.498917974220    
  18.400000000000       10.026995654314    
  18.800000000000       0.0000000000000    
  19.200000000000       7.5214933420580    
  19.600000000000       5.0260762875184    
  20.000000000000       2.4828575101146    
ZONE T= "Xw:     40.0300      Yw:     22.4100      Rw:    0.100000      Zwbot:     7.60000      Zwtop:     8.10000       Specie:  1 "
 0.40000000000000       0.0000000000000    
 0.80000000000000       0.0000000000000    
  1.2000000000000       0.0000000000000    
  1.6000000000000       0.0000000000000    
  2.0000000000000       0.0000000000000    
  2.4000000000000       0.0000000000000    
  2.8000000000000       0.0000000000000    
  3.2000000000000       0.0000000000000    
  3.6000000000000       0.0000000000000    
  4.0000000000000       2.5014335706340    
  4.4000000000000       5.0028671412680    
  4.8000000000000       0.0000000000000    
  5.2000000000000       2.5252863535273    
  5.6000000000000       0.0000000000000    
  6.0000000000000       2.5027956575375    
  6.4000000000000       22.532869314077    
  6.8000000000000       14.961184693638    
  7.2000000000000       34.977430541181    
  7.6000000000000       40.005523052166    
  8.0000000000000       45.010761813566    
  8.4000000000000       52.428935496749    
  8.8000000000000       37.469267041883    
  9.2000000000000       42.514001485334    
  9.6000000000000       32.406677894283    
  10.000000000000       42.491815868841    
  10.400000000000       34.930462669355    
  10.800000000000       24.994917331269    
  11.200000000000       34.911252967253    
  11.600000000000       57.481534417887    
  12.000000000000       45.027523607578    
  12.400000000000       52.430208498193    
  12.800000000000       42.385869686429    
  13.200000000000       70.015692583131    
  13.600000000000       62.531126818991    
  14.000000000000       35.146813654083    
  14.400000000000       20.067005151201    
  14.800000000000       22.404213791876    
  15.200000000000       24.978528897054    
  15.600000000000       29.908942166374    
  16.000000000000       19.980364210792    
  16.400000000000       37.500651981291    
  16.800000000000       14.895116620342    
  17.200000000000       52.318486531078    
  17.600000000000       44.902195278189    
  18.000000000000       4.9991102841843    
  18.400000000000       14.933733356843    
  18.800000000000       12.503187770979    
  19.200000000000       0.0000000000000    
  19.600000000000       12.524651211544    
  20.000000000000       2.5176950777582    
ZONE T= "Xw:     39.9300      Yw:     22.4100      Rw:    0.100000      Zwbot:     4.50000      Zwtop:     5.00000       Specie:  1 "
 0.40000000000000       0.0000000000000    
 0.80000000000000       0.0000000000000    
  1.2000000000000       0.0000000000000    
  1.6000000000000       0.0000000000000    
  2.0000000000000       0.0000000000000    
  2.4000000000000       0.0000000000000    
  2.8000000000000       0.0000000000000    
  3.2000000000000       0.0000000000000    
  3.6000000000000       0.0000000000000    
  4.0000000000000       2.5094261274152    
  4.4000000000000       2.4939921855378    
  4.8000000000000       14.965923545657    
  5.2000000000000       12.558704036034    
  5.6000000000000       19.980997469888    
  6.0000000000000       25.171415660570    
  6.4000000000000       27.457561084596    
  6.8000000000000       32.578298776103    
  7.2000000000000       44.959906158769    
  7.6000000000000       37.413223235562    
  8.0000000000000       37.533056698244    
  8.4000000000000       17.426943873652    
  8.8000000000000       47.408807431539    
  9.2000000000000       34.951944782800    
  9.6000000000000       67.458973021787    
  10.000000000000       50.023369626034    
  10.400000000000       55.012776309957    
  10.800000000000       52.478483785723    
  11.200000000000       60.126411609905    
  11.600000000000       45.057287405357    
  12.000000000000       37.539571185319    
  12.400000000000       32.581504176144    
  12.800000000000       27.539681213682    
  13.200000000000       29.994120594278    
  13.600000000000       15.033095961892    
  14.000000000000       22.547697648228    
  14.400000000000       10.061716161119    
  14.800000000000       12.503835425254    
  15.200000000000       9.9834506280207    
  15.600000000000       4.9966481989369    
  16.000000000000       10.075444884557    
  16.400000000000       5.0337523824701    
  16.800000000000       5.0111144111635    
  17.200000000000       7.5579354644224    
  17.600000000000       2.4942382199285    
  18.000000000000       2.4842625583229    
  18.400000000000       12.444090486252    
  18.800000000000       7.4936961533774    
  19.200000000000       4.9913512589040    
  19.600000000000       2.5071129243913    
  20.000000000000       4.9913512589040    
ZONE T= "Xw:     39.8300      Yw:     28.4100      Rw:    0.100000      Zwbot:     16.5000      Zwtop:     17.0000       Specie:  1 "
 0.40000000000000       0.0000000000000    
 0.80000000000000       0.0000000000000    
  1.2000000000000       0.0000000000000    
  1.6000000000000       0.0000000000000    
  2.0000000000000       0.0000000000000    
  2.4000000000000       0.0000000000000    
  2.8000000000000       0.0000000000000    
  3.2000000000000       0.0000000000000    
  3.6000000000000       2.5366345199195    
  4.0000000000000       7.5199198718576    
  4.4000000000000       2.5368051570547    
  4.8000000000000       5.0732690398389    
  5.2000000000000       2.5368051570547    
  5.6000000000000       2.5366345199195    
  6.0000000000000       2.5371086197656    
  6.4000000000000       2.5066399572859    
  6.8000000000000       0.0000000000000    
  7.2000000000000       2.4674053523608    
  7.6000000000000       0.0000000000000    
  8.0000000000000       7.4100220583980    
  8.4000000000000       9.9065931849922    
  8.8000000000000       15.035361638003    
  9.2000000000000       17.510765800948    
  9.6000000000000       9.9165420700344    
  10.000000000000       15.002233418978    
  10.400000000000       17.560592825204    
  10.800000000000       27.553268822395    
  11.200000000000       24.945198468086    
  11.600000000000       7.4968282108441    
  12.000000000000       19.937789441553    
  12.400000000000       12.511370743940    
  12.800000000000       12.579815050837    
  13.200000000000       32.563426738947    
  13.600000000000       45.158044616184    
  14.000000000000       55.194181122889    
  14.400000000000       32.560222091108    
  14.800000000000       25.133388472755    
  15.200000000000       29.890306520497    
  15.600000000000       35.037865220222    
  16.000000000000       10.010907709073    
  16.400000000000       22.474084760863    
  16.800000000000       4.9797206345758    
  17.200000000000       7.4842641334046    
  17.600000000000       2.5076024993816    
  18.000000000000       0.0000000000000    
  18.400000000000       0.0000000000000    
  18.800000000000       0.0000000000000    
  19.200000000000       7.4407435807549    
  19.600000000000       2.4678733102502    
  20.000000000000       4.9840506657215    
ZONE T= "Xw:     39.9300      Yw:     28.4100      Rw:    0.100000      Zwbot:     13.5000      Zwtop:     14.0000       Specie:  1 "
 0.40000000000000       0.0000000000000    
 0.80000000000000       0.0000000000000    
  1.2000000000000       0.0000000000000    
  1.6000000000000       0.0000000000000    
  2.0000000000000       0.0000000000000    
  2.4000000000000       0.0000000000000    
  2.8000000000000       0.0000000000000    
  3.2000000000000       0.0000000000000    
  3.6000000000000       0.0000000000000    
  4.0000000000000       0.0000000000000    
  4.4000000000000       0.0000000000000    
  4.8000000000000       0.0000000000000    
  5.2000000000000       0.0000000000000    
  5.6000000000000       0.0000000000000    
  6.0000000000000       0.0000000000000    
  6.4000000000000       0.0000000000000    
  6.8000000000000       0.0000000000000    
  7.2000000000000       0.0000000000000    
  7.6000000000000       0.0000000000000    
  8.0000000000000       0.0000000000000    
  8.4000000000000       0.0000000000000    
  8.8000000000000       0.0000000000000    
  9.2000000000000       0.0000000000000    
  9.6000000000000       0.0000000000000    
  10.000000000000       0.0000000000000    
  10.400000000000       0.0000000000000    
  10.800000000000       4.9585478031750    
  11.200000000000       4.9585478031750    
  11.600000000000       0.0000000000000    
  12.000000000000       0.0000000000000    
  12.400000000000       0.0000000000000    
  12.800000000000       2.4792739015875    
  13.200000000000       0.0000000000000    
  13.600000000000       2.4792739015875    
  14.000000000000       0.0000000000000    
  14.400000000000       0.0000000000000    
  14.800000000000       0.0000000000000    
  15.200000000000       0.0000000000000    
  15.600000000000       0.0000000000000    
  16.000000000000       2.5197890786312    
  16.400000000000       0.0000000000000    
  16.800000000000       0.0000000000000    
  17.200000000000       7.4431329183119    
  17.600000000000       7.4629006629205    
  18.000000000000       4.9620886122080    
  18.400000000000       9.9495891762254    
  18.800000000000       12.417882509290    
  19.200000000000       0.0000000000000    
  19.600000000000       7.5024361521377    
  20.000000000000       2.4619628436798    
ZONE T= "Xw:     39.8300      Yw:     28.4100      Rw:    0.100000      Zwbot:     10.6000      Zwtop:     11.2000       Specie:  1 "
 0.40000000000000       0.0000000000000    
 0.80000000000000       0.0000000000000    
  1.2000000000000       0.0000000000000    
  1.6000000000000       2.5097525618182    
  2.0000000000000       5.0195051236364    
  2.4000000000000       2.5097525618182    
  2.8000000000000       5.0490056891721    
  3.2000000000000       7.5984850011024    
  3.6000000000000       0.0000000000000    
  4.0000000000000       4.9937112772818    
  4.4000000000000       0.0000000000000    
  4.8000000000000       20.164032860519    
  5.2000000000000       15.134495710753    
  5.6000000000000       17.606220197615    
  6.0000000000000       27.639912527889    
  6.4000000000000       35.253864072110    
  6.8000000000000       15.022413142292    
  7.2000000000000       30.269955809790    
  7.6000000000000       35.033714073346    
  8.0000000000000       32.559804243181    
  8.4000000000000       27.377883593381    
  8.8000000000000       22.416412537173    
  9.2000000000000       20.010767817980    
  9.6000000000000       42.623946626946    
  10.000000000000       25.147291215998    
  10.400000000000       40.004836559469    
  10.800000000000       45.027520741284    
  11.200000000000       32.488864523143    
  11.600000000000       22.430764761456    
  12.000000000000       7.4833366690501    
  12.400000000000       22.461496548192    
  12.800000000000       32.480172922635    
  13.200000000000       20.017810876920    
  13.600000000000       37.399913033437    
  14.000000000000       37.438077317577    
  14.400000000000       15.042894034211    
  14.800000000000       12.472773321872    
  15.200000000000       5.0465566025097    
  15.600000000000       7.5247044869983    
  16.000000000000       15.049408973997    
  16.400000000000       12.392310413924    
  16.800000000000       27.530178457166    
  17.200000000000       12.493795838639    
  17.600000000000       5.0144738762663    
  18.000000000000       2.5181711306323    
  18.400000000000       9.9849615759160    
  18.800000000000       0.0000000000000    
  19.200000000000       7.4360612434572    
  19.600000000000       7.4802597428403    
  20.000000000000       7.4427958922355    
ZONE T= "Xw:     39.8300      Yw:     28.4100      Rw:    0.100000      Zwbot:     7.60000      Zwtop:     8.30000       Specie:  1 "
 0.40000000000000       0.0000000000000    
 0.80000000000000       0.0000000000000    
  1.2000000000000       0.0000000000000    
  1.6000000000000       0.0000000000000    
  2.0000000000000       0.0000000000000    
  2.4000000000000       0.0000000000000    
  2.8000000000000       0.0000000000000    
  3.2000000000000       0.0000000000000    
  3.6000000000000       0.0000000000000    
  4.0000000000000       0.0000000000000    
  4.4000000000000       2.4656272497092    
  4.8000000000000       0.0000000000000    
  5.2000000000000       12.398761141933    
  5.6000000000000       22.512111083916    
  6.0000000000000       7.4576997194551    
  6.4000000000000       9.9828488818859    
  6.8000000000000       22.393900636822    
  7.2000000000000       19.957489979712    
  7.6000000000000       32.530178387380    
  8.0000000000000       35.083701190148    
  8.4000000000000       34.940386362383    
  8.8000000000000       37.419804428004    
  9.2000000000000       47.524112415368    
  9.6000000000000       35.016994555025    
  10.000000000000       40.009469624054    
  10.400000000000       24.984142197582    
  10.800000000000       40.035123129987    
  11.200000000000       42.428988799211    
  11.600000000000       37.429797355051    
  12.000000000000       40.007730623438    
  12.400000000000       44.871844303396    
  12.800000000000       37.356634250156    
  13.200000000000       27.509679656447    
  13.600000000000       22.528942807420    
  14.000000000000       22.578569037166    
  14.400000000000       42.475773889788    
  14.800000000000       42.348063019496    
  15.200000000000       30.049278063419    
  15.600000000000       54.873082814454    
  16.000000000000       32.502613372545    
  16.400000000000       27.553144954387    
  16.800000000000       37.450577294903    
  17.200000000000       17.607583395928    
  17.600000000000       22.612985795606    
  18.000000000000       24.929660648218    
  18.400000000000       39.953798841312    
  18.800000000000       25.160511995378    
  19.200000000000       24.906631380648    
  19.600000000000       17.432045041831    
  20.000000000000       4.9461182655658    
ZONE T= "Xw:     39.8300      Yw:     28.5100      Rw:    0.100000      Zwbot:     4.50000      Zwtop:     5.00000       Specie:  1 "
 0.40000000000000       7.5525433082475    
 0.80000000000000       5.0460870503340    
  1.2000000000000       15.020228007669    
  1.6000000000000       24.987703067972    
  2.0000000000000       9.9436824573267    
  2.4000000000000       19.954807160516    
  2.8000000000000       42.432765927374    
  3.2000000000000       52.602551252118    
  3.6000000000000       12.429849242535    
  4.0000000000000       25.032207573626    
  4.4000000000000       24.985607809853    
  4.8000000000000       22.584128867669    
  5.2000000000000       44.925186503324    
  5.6000000000000       57.366874435747    
  6.0000000000000       39.874182021136    
  6.4000000000000       52.261509703715    
  6.8000000000000       37.487153302027    
  7.2000000000000       62.307235457317    
  7.6000000000000       59.755077627380    
  8.0000000000000       30.045220581774    
  8.4000000000000       42.393365053633    
  8.8000000000000       39.988436550631    
  9.2000000000000       27.507091221240    
  9.6000000000000       27.578906271437    
  10.000000000000       20.010105199724    
  10.400000000000       22.498047414057    
  10.800000000000       15.032797581829    
  11.200000000000       7.4682777806314    
  11.600000000000       7.4725804182732    
  12.000000000000       9.9781071466283    
  12.400000000000       17.541373152366    
  12.800000000000       14.906466767241    
  13.200000000000       10.062488043080    
  13.600000000000       5.0616736326742    
  14.000000000000       0.0000000000000    
  14.400000000000       2.5308368163371    
  14.800000000000       5.0189616880934    
  15.200000000000       5.0285571278295    
  15.600000000000       7.5428356917442    
  16.000000000000       0.0000000000000    
  16.400000000000       2.5142785639147    
  16.800000000000       4.9573160674898    
  17.200000000000       4.9573160674898    
  17.600000000000       0.0000000000000    
  18.000000000000       0.0000000000000    
  18.400000000000       0.0000000000000    
  18.800000000000       0.0000000000000    
  19.200000000000       0.0000000000000    
  19.600000000000       0.0000000000000    
  20.000000000000       0.0000000000000    
ZONE T= "Xw:     39.5300      Yw:     34.0100      Rw:    0.100000      Zwbot:     16.7000      Zwtop:     17.3000       Specie:  1 "
 0.40000000000000       20.068305792334    
 0.80000000000000       0.0000000000000    
  1.2000000000000       0.0000000000000    
  1.6000000000000       0.0000000000000    
  2.0000000000000       2.5061476805188    
  2.4000000000000       5.0122953610376    
  2.8000000000000       7.4972045378590    
  3.2000000000000       2.5252720287023    
  3.6000000000000       10.004941098620    
  4.0000000000000       19.963984159263    
  4.4000000000000       17.497983579517    
  4.8000000000000       15.026102379633    
  5.2000000000000       12.516551072865    
  5.6000000000000       17.566831131067    
  6.0000000000000       7.5056030631695    
  6.4000000000000       12.442551938082    
  6.8000000000000       17.463830810570    
  7.2000000000000       19.939082953302    
  7.6000000000000       34.993770314800    
  8.0000000000000       24.872257501332    
  8.4000000000000       27.415519656238    
  8.8000000000000       34.843568668917    
  9.2000000000000       34.941119674362    
  9.6000000000000       29.957847355043    
  10.000000000000       59.948945289804    
  10.400000000000       24.981082292957    
  10.800000000000       35.064096388714    
  11.200000000000       37.451232762431    
  11.600000000000       37.576745360386    
  12.000000000000       22.445190802342    
  12.400000000000       27.264074855586    
  12.800000000000       49.920804536737    
  13.200000000000       62.369158378250    
  13.600000000000       25.009746791525    
  14.000000000000       37.366488617864    
  14.400000000000       32.509705967835    
  14.800000000000       32.363813068616    
  15.200000000000       19.915207510156    
  15.600000000000       34.967777553175    
  16.000000000000       24.963297301979    
  16.400000000000       17.434414146532    
  16.800000000000       0.0000000000000    
  17.200000000000       12.454670522722    
  17.600000000000       15.022993714551    
  18.000000000000       29.995766382336    
  18.400000000000       14.914842601629    
  18.800000000000       5.0079887812540    
  19.200000000000       7.4178946297357    
  19.600000000000       2.4731393007959    
  20.000000000000       4.9463329878021    
ZONE T= "Xw:     39.5300      Yw:     34.1100      Rw:    0.100000      Zwbot:     13.5000      Zwtop:     14.0000       Specie:  1 "
 0.40000000000000       0.0000000000000    
 0.80000000000000       0.0000000000000    
  1.2000000000000       0.0000000000000    
  1.6000000000000       0.0000000000000    
  2.0000000000000       2.5066325100709    
  2.4000000000000       0.0000000000000    
  2.8000000000000       0.0000000000000    
  3.2000000000000       0.0000000000000    
  3.6000000000000       2.4750867312590    
  4.0000000000000       2.4750867312590    
  4.4000000000000       10.035532006467    
  4.8000000000000       7.5072263198851    
  5.2000000000000       0.0000000000000    
  5.6000000000000       7.5219332919998    
  6.0000000000000       0.0000000000000    
  6.4000000000000       5.0231722675022    
  6.8000000000000       12.497743664726    
  7.2000000000000       7.5021880873983    
  7.6000000000000       12.584079909597    
  8.0000000000000       15.090307548956    
  8.4000000000000       22.634642731139    
  8.8000000000000       15.067488316825    
  9.2000000000000       20.036539224614    
  9.6000000000000       15.058640592837    
  10.000000000000       15.042130204784    
  10.400000000000       17.584941374825    
  10.800000000000       22.483406834498    
  11.200000000000       12.457422685734    
  11.600000000000       34.940776335394    
  12.000000000000       27.490165996166    
  12.400000000000       25.102013339720    
  12.800000000000       14.958564258893    
  13.200000000000       22.484944645936    
  13.600000000000       12.548079824362    
  14.000000000000       25.087536357634    
  14.400000000000       25.098089525533    
  14.800000000000       30.105268287533    
  15.200000000000       22.483011407064    
  15.600000000000       27.535845529085    
  16.000000000000       47.449277964153    
  16.400000000000       2.5088242648506    
  16.800000000000       10.028912776221    
  17.200000000000       19.924588820920    
  17.600000000000       10.005141923376    
  18.000000000000       17.436367024160    
  18.400000000000       14.935177952292    
  18.800000000000       12.431621476042    
  19.200000000000       17.486910898550    
  19.600000000000       19.953625197328    
  20.000000000000       9.9845579959869    
ZONE T= "Xw:     39.4300      Yw:     34.0100      Rw:    0.100000      Zwbot:     10.5000      Zwtop:     11.1000       Specie:  1 "
 0.40000000000000       27.544588347321    
 0.80000000000000       10.001554583689    
  1.2000000000000       2.5061476805188    
  1.6000000000000       7.4557708621471    
  2.0000000000000       14.996904429265    
  2.4000000000000       22.478297591644    
  2.8000000000000       22.511096581841    
  3.2000000000000       30.204907601130    
  3.6000000000000       37.602054222745    
  4.0000000000000       27.541243773369    
  4.4000000000000       17.565776103884    
  4.8000000000000       42.805382945238    
  5.2000000000000       17.579747766123    
  5.6000000000000       42.665293698189    
  6.0000000000000       52.554971752983    
  6.4000000000000       52.428959647101    
  6.8000000000000       37.403895781195    
  7.2000000000000       29.954143515666    
  7.6000000000000       34.845554302769    
  8.0000000000000       27.479931610188    
  8.4000000000000       37.520203200374    
  8.8000000000000       22.577867469205    
  9.2000000000000       27.605387468666    
  9.6000000000000       17.416421253052    
  10.000000000000       17.460527198177    