 TITLE="TECPLOT input file: Breakthrough Curves" 
 VARIABLES="Time" "Concentrations" 
ZONE T= "Xw:     39.9300      Yw:     22.4100      Rw:    0.100000      Zwbot:     16.5000      Zwtop:     17.0000       Specie:  1 "
 0.40000000000000       0.0000000000000    
 0.80000000000000       0.0000000000000    
  1.2000000000000       0.0000000000000    
  1.6000000000000       0.0000000000000    
  2.0000000000000       0.0000000000000    
  2.4000000000000       0.0000000000000    
  2.8000000000000       0.0000000000000    
  3.2000000000000       0.0000000000000    
  3.6000000000000       0.0000000000000    
  4.0000000000000       0.0000000000000    
  4.4000000000000       0.0000000000000    
  4.8000000000000       0.0000000000000    
  5.2000000000000       0.0000000000000    
  5.6000000000000       0.0000000000000    
  6.0000000000000       0.0000000000000    
  6.4000000000000       0.0000000000000    
  6.8000000000000       0.0000000000000    
  7.2000000000000       0.0000000000000    
  7.6000000000000       0.0000000000000    
  8.0000000000000       0.0000000000000    
  8.4000000000000       0.0000000000000    
  8.8000000000000       0.0000000000000    
  9.2000000000000       0.0000000000000    
  9.6000000000000       0.0000000000000    
  10.000000000000       0.0000000000000    
  10.400000000000       0.0000000000000    
  10.800000000000       0.0000000000000    
  11.200000000000       0.0000000000000    
  11.600000000000       0.0000000000000    
  12.000000000000       0.0000000000000    
  12.400000000000       0.0000000000000    
  12.800000000000       0.0000000000000    
  13.200000000000       0.0000000000000    
  13.600000000000       0.0000000000000    
  14.000000000000       0.0000000000000    
  14.400000000000       0.0000000000000    
  14.800000000000       0.0000000000000    
  15.200000000000       2.4895918993778    
  15.600000000000       4.9791837987555    
  16.000000000000       0.0000000000000    
  16.400000000000       9.9583675975111    
  16.800000000000       0.0000000000000    
  17.200000000000       7.4687756981333    
  17.600000000000       0.0000000000000    
  18.000000000000       0.0000000000000    
  18.400000000000       0.0000000000000    
  18.800000000000       0.0000000000000    
  19.200000000000       0.0000000000000    
  19.600000000000       0.0000000000000    
  20.000000000000       0.0000000000000    
ZONE T= "Xw:     39.9300      Yw:     22.4100      Rw:    0.100000      Zwbot:     13.5000      Zwtop:     14.0000       Specie:  1 "
 0.40000000000000       0.0000000000000    
 0.80000000000000       0.0000000000000    
  1.2000000000000       0.0000000000000    
  1.6000000000000       0.0000000000000    
  2.0000000000000       0.0000000000000    
  2.4000000000000       0.0000000000000    
  2.8000000000000       0.0000000000000    
  3.2000000000000       0.0000000000000    
  3.6000000000000       0.0000000000000    
  4.0000000000000       0.0000000000000    
  4.4000000000000       0.0000000000000    
  4.8000000000000       0.0000000000000    
  5.2000000000000       0.0000000000000    
  5.6000000000000       0.0000000000000    
  6.0000000000000       0.0000000000000    
  6.4000000000000       0.0000000000000    
  6.8000000000000       0.0000000000000    
  7.2000000000000       0.0000000000000    
  7.6000000000000       0.0000000000000    
  8.0000000000000       0.0000000000000    
  8.4000000000000       0.0000000000000    
  8.8000000000000       0.0000000000000    
  9.2000000000000       0.0000000000000    
  9.6000000000000       0.0000000000000    
  10.000000000000       0.0000000000000    
  10.400000000000       0.0000000000000    
  10.800000000000       0.0000000000000    
  11.200000000000       0.0000000000000    
  11.600000000000       0.0000000000000    
  12.000000000000       0.0000000000000    
  12.400000000000       0.0000000000000    
  12.800000000000       0.0000000000000    
  13.200000000000       0.0000000000000    
  13.600000000000       0.0000000000000    
  14.000000000000       7.5763278775541    
  14.400000000000       5.0508852517027    
  14.800000000000       0.0000000000000    
  15.200000000000       5.0122620631121    
  15.600000000000       10.063147314815    
  16.000000000000       5.0122620631121    
  16.400000000000       2.5061310315561    
  16.800000000000       7.5183930946682    
  17.200000000000       4.9912878268471    
  17.600000000000       0.0000000000000    
  18.000000000000       5.0117824390694    
  18.400000000000       0.0000000000000    
  18.800000000000       0.0000000000000    
  19.200000000000       5.0106761494327    
  19.600000000000       12.504038669120    
  20.000000000000       5.0231108623649    
ZONE T= "Xw:     39.9300      Yw:     22.3100      Rw:    0.100000      Zwbot:     10.5000      Zwtop:     11.0000       Specie:  1 "
 0.40000000000000       0.0000000000000    
 0.80000000000000       0.0000000000000    
  1.2000000000000       0.0000000000000    
  1.6000000000000       0.0000000000000    
  2.0000000000000       0.0000000000000    
  2.4000000000000       2.5213517474871    
  2.8000000000000       0.0000000000000    
  3.2000000000000       0.0000000000000    
  3.6000000000000       0.0000000000000    
  4.0000000000000       0.0000000000000    
  4.4000000000000       0.0000000000000    
  4.8000000000000       2.4902843598795    
  5.2000000000000       0.0000000000000    
  5.6000000000000       7.4496185617346    
  6.0000000000000       9.9735496527473    
  6.4000000000000       9.9420180462677    
  6.8000000000000       5.0166398301663    
  7.2000000000000       12.509108549376    
  7.6000000000000       7.4961999861077    
  8.0000000000000       7.5047335253274    
  8.4000000000000       17.457065373298    
  8.8000000000000       22.444002994197    
  9.2000000000000       17.478664860206    
  9.6000000000000       17.541673266350    
  10.000000000000       29.855378226727    
  10.400000000000       27.545168369958    
  10.800000000000       39.978786164580    
  11.200000000000       55.067949195543    
  11.600000000000       20.075114714191    
  12.000000000000       35.108099250737    
  12.400000000000       39.946010227005    
  12.800000000000       35.005407137520    
  13.200000000000       40.033948090451    
  13.600000000000       20.047314700217    
  14.000000000000       20.137268452133    
  14.400000000000       32.674666328713    
  14.800000000000       15.030432777858    
  15.200000000000       12.509754049840    
  15.600000000000       10.000072440018    
  16.000000000000       2.4922626472741    
  16.400000000000       5.0199859211751    
  16.800000000000       0.0000000000000    
  17.200000000000       0.0000000000000    
  17.600000000000       2.4992415927540    
  18.000000000000       0.0000000000000    
  18.400000000000       2.4992415927540    
  18.800000000000       0.0000000000000    
  19.200000000000       0.0000000000000    
  19.600000000000       0.0000000000000    
  20.000000000000       0.0000000000000    
ZONE T= "Xw:     40.0300      Yw:     22.4100      Rw:    0.100000      Zwbot:     7.60000      Zwtop:     8.10000       Specie:  1 "
 0.40000000000000       0.0000000000000    
 0.80000000000000       0.0000000000000    
  1.2000000000000       0.0000000000000    
  1.6000000000000       0.0000000000000    
  2.0000000000000       0.0000000000000    
  2.4000000000000       0.0000000000000    
  2.8000000000000       0.0000000000000    
  3.2000000000000       0.0000000000000    
  3.6000000000000       0.0000000000000    
  4.0000000000000       2.5196866753609    
  4.4000000000000       7.5590600260828    
  4.8000000000000       0.0000000000000    
  5.2000000000000       4.9738772212218    
  5.6000000000000       0.0000000000000    
  6.0000000000000       4.9738772212218    
  6.4000000000000       10.006357144543    
  6.8000000000000       17.553401684127    
  7.2000000000000       35.054296201390    
  7.6000000000000       24.976015503032    
  8.0000000000000       37.406768789953    
  8.4000000000000       52.522684710851    
  8.8000000000000       32.548702040248    
  9.2000000000000       47.483985980611    
  9.6000000000000       87.378132273092    
  10.000000000000       57.508589461505    
  10.400000000000       59.883484763221    
  10.800000000000       52.578552868770    
  11.200000000000       27.471236821895    
  11.600000000000       44.890814514142    
  12.000000000000       84.841510215483    
  12.400000000000       54.993512380207    
  12.800000000000       47.650675615351    
  13.200000000000       65.041582081226    
  13.600000000000       49.839751070549    
  14.000000000000       42.532830184105    
  14.400000000000       32.512959504622    
  14.800000000000       34.987686766243    
  15.200000000000       37.444610620096    
  15.600000000000       22.507940826521    
  16.000000000000       37.426629920218    
  16.400000000000       44.900149089165    
  16.800000000000       12.538196945434    
  17.200000000000       35.107185717604    
  17.600000000000       22.527472175175    
  18.000000000000       22.620470878814    
  18.400000000000       12.524313491262    
  18.800000000000       10.002056934959    
  19.200000000000       2.4992257608826    
  19.600000000000       5.0037777347074    
  20.000000000000       2.5026004528616    
ZONE T= "Xw:     39.9300      Yw:     22.4100      Rw:    0.100000      Zwbot:     4.50000      Zwtop:     5.00000       Specie:  1 "
 0.40000000000000       0.0000000000000    
 0.80000000000000       0.0000000000000    
  1.2000000000000       0.0000000000000    
  1.6000000000000       0.0000000000000    
  2.0000000000000       0.0000000000000    
  2.4000000000000       0.0000000000000    
  2.8000000000000       0.0000000000000    
  3.2000000000000       0.0000000000000    
  3.6000000000000       0.0000000000000    
  4.0000000000000       2.4986567663994    
  4.4000000000000       2.5407250968624    
  4.8000000000000       2.5407250968624    
  5.2000000000000       15.044681572271    
  5.6000000000000       12.584272008268    
  6.0000000000000       12.647701270832    
  6.4000000000000       25.063557416290    
  6.8000000000000       32.559902850775    
  7.2000000000000       32.544130448521    
  7.6000000000000       35.217897867600    
  8.0000000000000       20.066124962323    
  8.4000000000000       32.505093820653    
  8.8000000000000       22.568569686138    
  9.2000000000000       35.083394547644    
  9.6000000000000       20.088691136781    
  10.000000000000       17.486529284741    
  10.400000000000       27.363973396308    
  10.800000000000       29.510304203204    
  11.200000000000       30.033962315748    
  11.600000000000       42.126323418894    
  12.000000000000       44.934142326516    
  12.400000000000       17.490856710205    
  12.800000000000       12.505071519499    
  13.200000000000       15.000892350617    
  13.600000000000       12.458060482362    
  14.000000000000       7.5081592606237    
  14.400000000000       4.9791952866835    
  14.800000000000       9.9977551725488    
  15.200000000000       19.958778567980    
  15.600000000000       7.5368649546384    
  16.000000000000       2.4807793777476    
  16.400000000000       2.4926615858282    
  16.800000000000       7.5591961914327    
  17.200000000000       5.0375533728273    
  17.600000000000       0.0000000000000    
  18.000000000000       0.0000000000000    
  18.400000000000       12.586553033278    
  18.800000000000       10.044995581633    
  19.200000000000       19.950677223226    
  19.600000000000       5.0009870119004    
  20.000000000000       4.9560553763551    
ZONE T= "Xw:     39.8300      Yw:     28.4100      Rw:    0.100000      Zwbot:     16.5000      Zwtop:     17.0000       Specie:  1 "
 0.40000000000000       0.0000000000000    
 0.80000000000000       0.0000000000000    
  1.2000000000000       0.0000000000000    
  1.6000000000000       0.0000000000000    
  2.0000000000000       0.0000000000000    
  2.4000000000000       0.0000000000000    
  2.8000000000000       0.0000000000000    
  3.2000000000000       0.0000000000000    
  3.6000000000000       0.0000000000000    
  4.0000000000000       0.0000000000000    
  4.4000000000000       0.0000000000000    
  4.8000000000000       0.0000000000000    
  5.2000000000000       0.0000000000000    
  5.6000000000000       14.817112866242    
  6.0000000000000       7.5178347613569    
  6.4000000000000       4.9766333531863    
  6.8000000000000       0.0000000000000    
  7.2000000000000       5.0330269498448    
  7.6000000000000       2.5412014081707    
  8.0000000000000       2.4601198782638    
  8.4000000000000       4.9999254861492    
  8.8000000000000       4.9700805621790    
  9.2000000000000       9.9490163997715    
  9.6000000000000       12.399537096896    
  10.000000000000       22.537137436289    
  10.400000000000       25.095331037202    
  10.800000000000       15.057675784794    
  11.200000000000       37.549573700106    
  11.600000000000       27.584685181009    
  12.000000000000       32.238992226623    
  12.400000000000       37.395471212685    
  12.800000000000       29.916117271828    
  13.200000000000       32.584992719807    
  13.600000000000       7.4459581262767    
  14.000000000000       32.548909616826    
  14.400000000000       45.117037777850    
  14.800000000000       39.829205011470    
  15.200000000000       44.802118211251    
  15.600000000000       34.983182141144    
  16.000000000000       9.9806606769965    
  16.400000000000       7.4943646443296    
  16.800000000000       25.005774633358    
  17.200000000000       10.072752019923    
  17.600000000000       14.965922210437    
  18.000000000000       7.5019681170827    
  18.400000000000       12.573753225669    
  18.800000000000       12.532521229684    
  19.200000000000       5.0604799966154    
  19.600000000000       7.5285489628880    
  20.000000000000       0.0000000000000    
ZONE T= "Xw:     39.9300      Yw:     28.4100      Rw:    0.100000      Zwbot:     13.5000      Zwtop:     14.0000       Specie:  1 "
 0.40000000000000       0.0000000000000    
 0.80000000000000       0.0000000000000    
  1.2000000000000       0.0000000000000    
  1.6000000000000       0.0000000000000    
  2.0000000000000       0.0000000000000    
  2.4000000000000       0.0000000000000    
  2.8000000000000       0.0000000000000    
  3.2000000000000       0.0000000000000    
  3.6000000000000       0.0000000000000    
  4.0000000000000       0.0000000000000    
  4.4000000000000       0.0000000000000    
  4.8000000000000       0.0000000000000    
  5.2000000000000       0.0000000000000    
  5.6000000000000       0.0000000000000    
  6.0000000000000       0.0000000000000    
  6.4000000000000       0.0000000000000    
  6.8000000000000       0.0000000000000    
  7.2000000000000       0.0000000000000    
  7.6000000000000       0.0000000000000    
  8.0000000000000       0.0000000000000    
  8.4000000000000       0.0000000000000    
  8.8000000000000       0.0000000000000    
  9.2000000000000       0.0000000000000    
  9.6000000000000       0.0000000000000    
  10.000000000000       0.0000000000000    
  10.400000000000       4.9712860764162    
  10.800000000000       0.0000000000000    
  11.200000000000       2.4856430382081    
  11.600000000000       2.4856430382081    
  12.000000000000       0.0000000000000    
  12.400000000000       0.0000000000000    
  12.800000000000       0.0000000000000    
  13.200000000000       5.0480272802210    
  13.600000000000       0.0000000000000    
  14.000000000000       0.0000000000000    
  14.400000000000       0.0000000000000    
  14.800000000000       7.4466006133885    
  15.200000000000       2.4822002044628    
  15.600000000000       2.4883228514828    
  16.000000000000       0.0000000000000    
  16.400000000000       0.0000000000000    
  16.800000000000       2.4893493244731    
  17.200000000000       4.9644004089257    
  17.600000000000       2.4893493244731    
  18.000000000000       0.0000000000000    
  18.400000000000       7.6110478431691    
  18.800000000000       4.9766457029656    
  19.200000000000       2.5046122717530    
  19.600000000000       2.5046122717530    
  20.000000000000       7.5167192223538    
ZONE T= "Xw:     39.8300      Yw:     28.4100      Rw:    0.100000      Zwbot:     10.6000      Zwtop:     11.2000       Specie:  1 "
 0.40000000000000       0.0000000000000    
 0.80000000000000       0.0000000000000    
  1.2000000000000       0.0000000000000    
  1.6000000000000       0.0000000000000    
  2.0000000000000       0.0000000000000    
  2.4000000000000       0.0000000000000    
  2.8000000000000       2.5323112672626    
  3.2000000000000       12.465980592283    
  3.6000000000000       15.084456366840    
  4.0000000000000       15.005018599085    
  4.4000000000000       20.012986886792    
  4.8000000000000       45.125074089556    
  5.2000000000000       5.0493105606582    
  5.6000000000000       12.451664212066    
  6.0000000000000       27.484970458088    
  6.4000000000000       15.115320797871    
  6.8000000000000       17.471814968345    
  7.2000000000000       27.308874548994    
  7.6000000000000       29.905329241479    
  8.0000000000000       37.467293555934    
  8.4000000000000       19.863204266084    
  8.8000000000000       39.936616290997    
  9.2000000000000       42.709076536615    
  9.6000000000000       12.475904831045    
  10.000000000000       37.361945816617    
  10.400000000000       22.504525130092    
  10.800000000000       7.5370280575373    
  11.200000000000       29.890225409930    
  11.600000000000       37.309313721486    
  12.000000000000       45.035523960036    
  12.400000000000       29.951586791803    
  12.800000000000       22.462710872842    
  13.200000000000       25.013201445922    
  13.600000000000       19.988383541917    
  14.000000000000       50.261051377498    
  14.400000000000       5.0356008066627    
  14.800000000000       15.100882472640    
  15.200000000000       17.527993267459    
  15.600000000000       22.522217842574    
  16.000000000000       5.0332036886918    
  16.400000000000       2.5298641514309    
  16.800000000000       5.0597283028618    
  17.200000000000       0.0000000000000    
  17.600000000000       7.5759592001837    
  18.000000000000       12.525302017745    
  18.400000000000       0.0000000000000    
  18.800000000000       2.4883595477985    
  19.200000000000       2.4972101375311    
  19.600000000000       0.0000000000000    
  20.000000000000       7.4739292331280    
ZONE T= "Xw:     39.8300      Yw:     28.4100      Rw:    0.100000      Zwbot:     7.60000      Zwtop:     8.30000       Specie:  1 "
 0.40000000000000       0.0000000000000    
 0.80000000000000       0.0000000000000    
  1.2000000000000       0.0000000000000    
  1.6000000000000       0.0000000000000    
  2.0000000000000       2.4909119808584    
  2.4000000000000       2.5155564697857    
  2.8000000000000       0.0000000000000    
  3.2000000000000       7.4245264035926    
  3.6000000000000       24.896216148450    
  4.0000000000000       27.497764777875    
  4.4000000000000       34.938539911772    
  4.8000000000000       20.039563869744    
  5.2000000000000       17.544943990544    
  5.6000000000000       22.517862059935    
  6.0000000000000       20.100194201946    
  6.4000000000000       37.479673147612    
  6.8000000000000       32.312687729366    
  7.2000000000000       47.552254613314    
  7.6000000000000       27.396560401197    
  8.0000000000000       32.525028912891    
  8.4000000000000       27.364904707445    
  8.8000000000000       14.880749955946    
  9.2000000000000       37.401164185632    
  9.6000000000000       29.956619496387    
  10.000000000000       39.756007688516    
  10.400000000000       49.932698680020    
  10.800000000000       42.415558612905    
  11.200000000000       52.562171406410    
  11.600000000000       30.044374576392    
  12.000000000000       72.838119973224    
  12.400000000000       17.591003054359    
  12.800000000000       30.162608422811    
  13.200000000000       37.505019806350    
  13.600000000000       27.687087270472    
  14.000000000000       50.441112349974    
  14.400000000000       27.661067170230    
  14.800000000000       19.993967128486    
  15.200000000000       17.420509329412    
  15.600000000000       9.9686421641670    
  16.000000000000       19.968081193160    
  16.400000000000       25.005012340178    
  16.800000000000       34.979130257432    
  17.200000000000       19.906675816511    
  17.600000000000       5.0316552441472    
  18.000000000000       12.521149964429    
  18.400000000000       34.854819102924    
  18.800000000000       15.010332564545    
  19.200000000000       32.387417844283    
  19.600000000000       27.421715628827    
  20.000000000000       12.423954288952    
ZONE T= "Xw:     39.8300      Yw:     28.5100      Rw:    0.100000      Zwbot:     4.50000      Zwtop:     5.00000       Specie:  1 "
 0.40000000000000       10.032063225445    
 0.80000000000000       0.0000000000000    
  1.2000000000000       10.058274678301    
  1.6000000000000       35.275927215027    
  2.0000000000000       25.115531759516    
  2.4000000000000       19.966215649029    
  2.8000000000000       37.347113474914    
  3.2000000000000       27.312823013426    
  3.6000000000000       24.988310790285    
  4.0000000000000       40.083011616955    
  4.4000000000000       22.525124634426    
  4.8000000000000       19.915698688646    
  5.2000000000000       29.941120610373    
  5.6000000000000       15.096297960690    
  6.0000000000000       50.122287240086    
  6.4000000000000       42.247902031645    
  6.8000000000000       47.298933968296    
  7.2000000000000       59.669191381255    
  7.6000000000000       32.178790231175    
  8.0000000000000       29.825017650929    
  8.4000000000000       32.401754185926    
  8.8000000000000       24.944073918904    
  9.2000000000000       25.023644197953    
  9.6000000000000       17.528634788051    
  10.000000000000       24.896924453696    
  10.400000000000       10.066018312631    
  10.800000000000       4.9700880817643    
  11.200000000000       15.049947599730    
  11.600000000000       7.4732517791079    
  12.000000000000       14.975996393130    
  12.400000000000       49.797129110154    
  12.800000000000       9.9777831645722    
  13.200000000000       2.4896505109029    
  13.600000000000       4.9506155561849    
  14.000000000000       2.4828415319377    
  14.400000000000       0.0000000000000    
  14.800000000000       0.0000000000000    
  15.200000000000       2.5247369425585    
  15.600000000000       2.5247369425585    
  16.000000000000       0.0000000000000    
  16.400000000000       0.0000000000000    
  16.800000000000       0.0000000000000    
  17.200000000000       0.0000000000000    
  17.600000000000       0.0000000000000    
  18.000000000000       0.0000000000000    
  18.400000000000       0.0000000000000    
  18.800000000000       0.0000000000000    
  19.200000000000       0.0000000000000    
  19.600000000000       0.0000000000000    
  20.000000000000       0.0000000000000    
ZONE T= "Xw:     39.5300      Yw:     34.0100      Rw:    0.100000      Zwbot:     16.7000      Zwtop:     17.3000       Specie:  1 "
 0.40000000000000       17.423190354939    
 0.80000000000000       7.5825414122255    
  1.2000000000000       7.4450119709757    
  1.6000000000000       12.512537220895    
  2.0000000000000       15.004345055473    
  2.4000000000000       4.9694894504821    
  2.8000000000000       2.4939669299886    
  3.2000000000000       2.5119339948613    
  3.6000000000000       15.132627931686    
  4.0000000000000       17.534389895045    
  4.4000000000000       32.575817449041    
  4.8000000000000       7.5623380095595    
  5.2000000000000       12.489842704655    
  5.6000000000000       15.080548425636    
  6.0000000000000       7.5418941539060    
  6.4000000000000       20.098871488421    
  6.8000000000000       22.479671344009    
  7.2000000000000       12.452186113505    
  7.6000000000000       7.4530710212199    
  8.0000000000000       24.916715076973    
  8.4000000000000       10.071871816718    
  8.8000000000000       17.430356840523    
  9.2000000000000       22.546165190024    
  9.6000000000000       17.546762048797    
  10.000000000000       29.921996329117    
  10.400000000000       47.370129079887    
  10.800000000000       14.934286286799    
  11.200000000000       22.504724544741    
  11.600000000000       22.457020289222    
  12.000000000000       12.552685238741    
  12.400000000000       12.479373112536    
  12.800000000000       22.422259480828    
  13.200000000000       20.080293350801    
  13.600000000000       12.551787870749    
  14.000000000000       24.955469304892    
  14.400000000000       12.498625748674    
  14.800000000000       12.496591222552    
  15.200000000000       30.179375020074    
  15.600000000000       17.559062523269    
  16.000000000000       15.046343867732    
  16.400000000000       7.5500228564669    
  16.800000000000       7.5223380243396    
  17.200000000000       29.951367742066    
  17.600000000000       17.462894591002    
  18.000000000000       20.016920676992    
  18.400000000000       19.909706029347    
  18.800000000000       24.984664259120    
  19.200000000000       27.528225328023    
  19.600000000000       22.544498351086    
  20.000000000000       4.9968416244149    
ZONE T= "Xw:     39.5300      Yw:     34.1100      Rw:    0.100000      Zwbot:     13.5000      Zwtop:     14.0000       Specie:  1 "
 0.40000000000000       0.0000000000000    
 0.80000000000000       0.0000000000000    
  1.2000000000000       0.0000000000000    
  1.6000000000000       0.0000000000000    
  2.0000000000000       0.0000000000000    
  2.4000000000000       0.0000000000000    
  2.8000000000000       0.0000000000000    
  3.2000000000000       0.0000000000000    
  3.6000000000000       12.561509292706    
  4.0000000000000       5.0395408301285    
  4.4000000000000       5.0395408301285    
  4.8000000000000       0.0000000000000    
  5.2000000000000       2.5197704150642    
  5.6000000000000       5.0395408301285    
  6.0000000000000       7.5683481528942    
  6.4000000000000       5.0455654352628    
  6.8000000000000       2.5227827176314    
  7.2000000000000       0.0000000000000    
  7.6000000000000       2.5183910213304    
  8.0000000000000       4.9937916336657    
  8.4000000000000       14.968962724548    
  8.8000000000000       17.438253464328    
  9.2000000000000       12.500038430598    
  9.6000000000000       17.645939944453    
  10.000000000000       15.059990872095    
  10.400000000000       12.588026687358    
  10.800000000000       22.535218461370    
  11.200000000000       12.443168866705    
  11.600000000000       17.606711420781    
  12.000000000000       25.075329494159    
  12.400000000000       10.059426243613    
  12.800000000000       19.990865132190    
  13.200000000000       22.571423504123    
  13.600000000000       5.0195026100599    
  14.000000000000       10.001564637886    
  14.400000000000       7.5240763911718    
  14.800000000000       27.501261979416    
  15.200000000000       15.026835893449    
  15.600000000000       19.951281092861    
  16.000000000000       17.523189703884    
  16.400000000000       5.0385030564986    
  16.800000000000       9.9218705056522    
  17.200000000000       9.9437696841148    
  17.600000000000       12.547354244252    
  18.000000000000       2.4765029538920    
  18.400000000000       39.971904324793    
  18.800000000000       20.048643629749    
  19.200000000000       15.078182511688    
  19.600000000000       22.483386284198    
  20.000000000000       10.028562728883    
ZONE T= "Xw:     39.4300      Yw:     34.0100      Rw:    0.100000      Zwbot:     10.5000      Zwtop:     11.1000       Specie:  1 "
 0.40000000000000       24.745212812424    
 0.80000000000000       22.529457508901    
  1.2000000000000       14.979193618822    
  1.6000000000000       12.551629477673    
  2.0000000000000       10.077262809186    
  2.4000000000000       22.567961431667    
  2.8000000000000       27.473009234212    
  3.2000000000000       22.434568051648    
  3.6000000000000       12.493846648608    
  4.0000000000000       27.394280696310    
  4.4000000000000       30.082902608314    
  4.8000000000000       22.570473020852    
  5.2000000000000       40.199768521980    
  5.6000000000000       20.069309991868    
  6.0000000000000       7.5070795914637    
  6.4000000000000       5.0226408366440    
  6.8000000000000       20.004734307687    
  7.2000000000000       19.994021123625    
  7.6000000000000       27.467491488412    
  8.0000000000000       32.483602964244    
  8.4000000000000       27.419237989643    
  8.8000000000000       20.016837237834    
  9.2000000000000       34.892508348721    
  9.6000000000000       17.381675796412    
  10.000000000000       20.016908652535    