 TITLE="TECPLOT input file: Breakthrough Curves" 
 VARIABLES="Time" "Concentrations" 
ZONE T= "Xw:     39.9300      Yw:     22.4100      Rw:    0.100000      Zwbot:     16.5000      Zwtop:     17.0000       Specie:  1 "
 0.40000000000000       0.0000000000000    
 0.80000000000000       0.0000000000000    
  1.2000000000000       0.0000000000000    
  1.6000000000000       0.0000000000000    
  2.0000000000000       0.0000000000000    
  2.4000000000000       0.0000000000000    
  2.8000000000000       0.0000000000000    
  3.2000000000000       0.0000000000000    
  3.6000000000000       0.0000000000000    
  4.0000000000000       0.0000000000000    
  4.4000000000000       0.0000000000000    
  4.8000000000000       0.0000000000000    
  5.2000000000000       0.0000000000000    
  5.6000000000000       0.0000000000000    
  6.0000000000000       0.0000000000000    
  6.4000000000000       0.0000000000000    
  6.8000000000000       0.0000000000000    
  7.2000000000000       0.0000000000000    
  7.6000000000000       0.0000000000000    
  8.0000000000000       0.0000000000000    
  8.4000000000000       0.0000000000000    
  8.8000000000000       0.0000000000000    
  9.2000000000000       0.0000000000000    
  9.6000000000000       0.0000000000000    
  10.000000000000       0.0000000000000    
  10.400000000000       0.0000000000000    
  10.800000000000       0.0000000000000    
  11.200000000000       0.0000000000000    
  11.600000000000       0.0000000000000    
  12.000000000000       0.0000000000000    
  12.400000000000       0.0000000000000    
  12.800000000000       0.0000000000000    
  13.200000000000       0.0000000000000    
  13.600000000000       0.0000000000000    
  14.000000000000       0.0000000000000    
  14.400000000000       0.0000000000000    
  14.800000000000       0.0000000000000    
  15.200000000000       0.0000000000000    
  15.600000000000       0.0000000000000    
  16.000000000000       0.0000000000000    
  16.400000000000       0.0000000000000    
  16.800000000000       2.4907732281662    
  17.200000000000       0.0000000000000    
  17.600000000000       2.4844301838980    
  18.000000000000       2.4844301838980    
  18.400000000000       2.4844301838980    
  18.800000000000       4.9688603677960    
  19.200000000000       2.4844301838980    
  19.600000000000       0.0000000000000    
  20.000000000000       0.0000000000000    
ZONE T= "Xw:     39.9300      Yw:     22.4100      Rw:    0.100000      Zwbot:     13.5000      Zwtop:     14.0000       Specie:  1 "
 0.40000000000000       0.0000000000000    
 0.80000000000000       0.0000000000000    
  1.2000000000000       0.0000000000000    
  1.6000000000000       0.0000000000000    
  2.0000000000000       0.0000000000000    
  2.4000000000000       0.0000000000000    
  2.8000000000000       0.0000000000000    
  3.2000000000000       0.0000000000000    
  3.6000000000000       0.0000000000000    
  4.0000000000000       0.0000000000000    
  4.4000000000000       0.0000000000000    
  4.8000000000000       0.0000000000000    
  5.2000000000000       0.0000000000000    
  5.6000000000000       0.0000000000000    
  6.0000000000000       0.0000000000000    
  6.4000000000000       0.0000000000000    
  6.8000000000000       0.0000000000000    
  7.2000000000000       0.0000000000000    
  7.6000000000000       0.0000000000000    
  8.0000000000000       0.0000000000000    
  8.4000000000000       0.0000000000000    
  8.8000000000000       0.0000000000000    
  9.2000000000000       0.0000000000000    
  9.6000000000000       0.0000000000000    
  10.000000000000       0.0000000000000    
  10.400000000000       0.0000000000000    
  10.800000000000       0.0000000000000    
  11.200000000000       0.0000000000000    
  11.600000000000       0.0000000000000    
  12.000000000000       0.0000000000000    
  12.400000000000       2.4989578666503    
  12.800000000000       2.4989578666503    
  13.200000000000       2.4989578666503    
  13.600000000000       0.0000000000000    
  14.000000000000       2.4989578666503    
  14.400000000000       0.0000000000000    
  14.800000000000       0.0000000000000    
  15.200000000000       0.0000000000000    
  15.600000000000       0.0000000000000    
  16.000000000000       0.0000000000000    
  16.400000000000       7.4793165388949    
  16.800000000000       9.9790484137543    
  17.200000000000       2.4931055129650    
  17.600000000000       2.4931055129650    
  18.000000000000       0.0000000000000    
  18.400000000000       0.0000000000000    
  18.800000000000       5.0198396836575    
  19.200000000000       17.481784545774    
  19.600000000000       17.442650528955    
  20.000000000000       25.080358133044    
ZONE T= "Xw:     39.9300      Yw:     22.3100      Rw:    0.100000      Zwbot:     10.5000      Zwtop:     11.0000       Specie:  1 "
 0.40000000000000       0.0000000000000    
 0.80000000000000       0.0000000000000    
  1.2000000000000       0.0000000000000    
  1.6000000000000       0.0000000000000    
  2.0000000000000       0.0000000000000    
  2.4000000000000       0.0000000000000    
  2.8000000000000       0.0000000000000    
  3.2000000000000       0.0000000000000    
  3.6000000000000       0.0000000000000    
  4.0000000000000       0.0000000000000    
  4.4000000000000       0.0000000000000    
  4.8000000000000       5.0279871225207    
  5.2000000000000       5.0175320250898    
  5.6000000000000       20.103023501304    
  6.0000000000000       17.552794743167    
  6.4000000000000       10.010650884144    
  6.8000000000000       20.055386057764    
  7.2000000000000       35.106218353788    
  7.6000000000000       20.070850103283    
  8.0000000000000       17.569007407075    
  8.4000000000000       27.517165831110    
  8.8000000000000       27.615806122441    
  9.2000000000000       50.259190485967    
  9.6000000000000       25.119246550741    
  10.000000000000       37.498617432283    
  10.400000000000       42.405578443430    
  10.800000000000       37.437218941481    
  11.200000000000       49.844141446897    
  11.600000000000       32.480162032039    
  12.000000000000       27.537216430766    
  12.400000000000       37.475609084903    
  12.800000000000       37.533482355028    
  13.200000000000       20.055648433902    
  13.600000000000       24.958548243374    
  14.000000000000       7.4944740990512    
  14.400000000000       15.063876819444    
  14.800000000000       10.003458755698    
  15.200000000000       17.493065881977    
  15.600000000000       10.022864812987    
  16.000000000000       14.982303986439    
  16.400000000000       7.4905894763831    
  16.800000000000       15.036466580127    
  17.200000000000       29.984814456492    
  17.600000000000       17.492686900167    
  18.000000000000       9.9814480645292    
  18.400000000000       4.9968312533425    
  18.800000000000       4.9993415858456    
  19.200000000000       2.5152573157959    
  19.600000000000       2.5152573157959    
  20.000000000000       0.0000000000000    
ZONE T= "Xw:     40.0300      Yw:     22.4100      Rw:    0.100000      Zwbot:     7.60000      Zwtop:     8.10000       Specie:  1 "
 0.40000000000000       0.0000000000000    
 0.80000000000000       0.0000000000000    
  1.2000000000000       0.0000000000000    
  1.6000000000000       0.0000000000000    
  2.0000000000000       0.0000000000000    
  2.4000000000000       0.0000000000000    
  2.8000000000000       0.0000000000000    
  3.2000000000000       0.0000000000000    
  3.6000000000000       0.0000000000000    
  4.0000000000000       0.0000000000000    
  4.4000000000000       0.0000000000000    
  4.8000000000000       10.039677235936    
  5.2000000000000       7.5200949894356    
  5.6000000000000       9.9716712715177    
  6.0000000000000       14.960224546564    
  6.4000000000000       12.459393668781    
  6.8000000000000       10.043477274304    
  7.2000000000000       20.016037986441    
  7.6000000000000       22.537227654462    
  8.0000000000000       25.019637003912    
  8.4000000000000       20.000951013819    
  8.8000000000000       34.994519637731    
  9.2000000000000       7.4986994610070    
  9.6000000000000       12.499172642154    
  10.000000000000       35.031682953166    
  10.400000000000       57.635549185394    
  10.800000000000       47.460741383045    
  11.200000000000       44.995495506354    
  11.600000000000       45.027436994880    
  12.000000000000       32.499819243253    
  12.400000000000       30.014554596063    
  12.800000000000       29.936213350079    
  13.200000000000       57.550347157400    
  13.600000000000       34.986880407265    
  14.000000000000       54.991166803594    
  14.400000000000       49.869532341800    
  14.800000000000       42.461995290933    
  15.200000000000       32.504190297618    
  15.600000000000       52.525709832448    
  16.000000000000       35.046806819824    
  16.400000000000       22.513680879634    
  16.800000000000       14.969824999919    
  17.200000000000       12.492264623305    
  17.600000000000       10.023383007557    
  18.000000000000       10.004321744530    
  18.400000000000       10.021097623801    
  18.800000000000       0.0000000000000    
  19.200000000000       0.0000000000000    
  19.600000000000       0.0000000000000    
  20.000000000000       2.4869629071997    
ZONE T= "Xw:     39.9300      Yw:     22.4100      Rw:    0.100000      Zwbot:     4.50000      Zwtop:     5.00000       Specie:  1 "
 0.40000000000000       0.0000000000000    
 0.80000000000000       0.0000000000000    
  1.2000000000000       0.0000000000000    
  1.6000000000000       0.0000000000000    
  2.0000000000000       0.0000000000000    
  2.4000000000000       0.0000000000000    
  2.8000000000000       0.0000000000000    
  3.2000000000000       0.0000000000000    
  3.6000000000000       0.0000000000000    
  4.0000000000000       5.0608697933662    
  4.4000000000000       15.004129480903    
  4.8000000000000       2.4989578666503    
  5.2000000000000       17.454434153831    
  5.6000000000000       22.421059287984    
  6.0000000000000       17.493860333748    
  6.4000000000000       42.622860904826    
  6.8000000000000       7.5010881318840    
  7.2000000000000       15.020642510088    
  7.6000000000000       12.432139468205    
  8.0000000000000       17.470746797837    
  8.4000000000000       37.331984402651    
  8.8000000000000       32.420492008192    
  9.2000000000000       40.006864808537    
  9.6000000000000       44.908882042520    
  10.000000000000       20.023896103938    
  10.400000000000       32.387330392620    
  10.800000000000       7.4552272333582    
  11.200000000000       19.946119527999    
  11.600000000000       30.006559742174    
  12.000000000000       29.931518950158    
  12.400000000000       15.014029282122    
  12.800000000000       27.482325553999    
  13.200000000000       30.045996219354    
  13.600000000000       20.050502941485    
  14.000000000000       12.578541219889    
  14.400000000000       17.582938756274    
  14.800000000000       10.008545905211    
  15.200000000000       9.9860676346927    
  15.600000000000       9.9138951196776    
  16.000000000000       7.5115557405045    
  16.400000000000       4.9989412501455    
  16.800000000000       14.958548283370    
  17.200000000000       2.4878560350498    
  17.600000000000       2.4931055129650    
  18.000000000000       0.0000000000000    
  18.400000000000       9.9585714676170    
  18.800000000000       2.5074930502423    
  19.200000000000       12.466064517859    
  19.600000000000       0.0000000000000    
  20.000000000000       0.0000000000000    
ZONE T= "Xw:     39.8300      Yw:     28.4100      Rw:    0.100000      Zwbot:     16.5000      Zwtop:     17.0000       Specie:  1 "
 0.40000000000000       0.0000000000000    
 0.80000000000000       0.0000000000000    
  1.2000000000000       0.0000000000000    
  1.6000000000000       0.0000000000000    
  2.0000000000000       0.0000000000000    
  2.4000000000000       2.5242176980103    
  2.8000000000000       7.5204108472898    
  3.2000000000000       7.4159263538078    
  3.6000000000000       7.5204108472898    
  4.0000000000000       10.044628545300    
  4.4000000000000       0.0000000000000    
  4.8000000000000       0.0000000000000    
  5.2000000000000       2.5242176980103    
  5.6000000000000       0.0000000000000    
  6.0000000000000       7.4854417411985    
  6.4000000000000       5.0631712675273    
  6.8000000000000       20.151138370638    
  7.2000000000000       12.503236833387    
  7.6000000000000       12.578262513853    
  8.0000000000000       10.001176046632    
  8.4000000000000       25.168712323856    
  8.8000000000000       12.518259199643    
  9.2000000000000       10.058844178050    
  9.6000000000000       17.690310731082    
  10.000000000000       5.0178033120519    
  10.400000000000       14.965913779090    
  10.800000000000       4.9681585165203    
  11.200000000000       7.5554772457588    
  11.600000000000       17.583797303062    
  12.000000000000       22.342152879384    
  12.400000000000       7.5449088560135    
  12.800000000000       12.532513754589    
  13.200000000000       20.047575910639    
  13.600000000000       12.483641418155    
  14.000000000000       24.943399968288    
  14.400000000000       17.465752371363    
  14.800000000000       25.092822535048    
  15.200000000000       14.934766699885    
  15.600000000000       17.574729076080    
  16.000000000000       17.470488923554    
  16.400000000000       2.4904993489900    
  16.800000000000       14.923781234690    
  17.200000000000       14.963726327490    
  17.600000000000       14.979278102114    
  18.000000000000       12.545893341917    
  18.400000000000       10.102285092318    
  18.800000000000       25.201874275510    
  19.200000000000       30.031199175207    
  19.600000000000       17.655006480597    
  20.000000000000       19.959220551820    
ZONE T= "Xw:     39.9300      Yw:     28.4100      Rw:    0.100000      Zwbot:     13.5000      Zwtop:     14.0000       Specie:  1 "
 0.40000000000000       0.0000000000000    
 0.80000000000000       0.0000000000000    
  1.2000000000000       0.0000000000000    
  1.6000000000000       0.0000000000000    
  2.0000000000000       0.0000000000000    
  2.4000000000000       0.0000000000000    
  2.8000000000000       0.0000000000000    
  3.2000000000000       0.0000000000000    
  3.6000000000000       0.0000000000000    
  4.0000000000000       0.0000000000000    
  4.4000000000000       0.0000000000000    
  4.8000000000000       0.0000000000000    
  5.2000000000000       0.0000000000000    
  5.6000000000000       0.0000000000000    
  6.0000000000000       0.0000000000000    
  6.4000000000000       0.0000000000000    
  6.8000000000000       0.0000000000000    
  7.2000000000000       0.0000000000000    
  7.6000000000000       0.0000000000000    
  8.0000000000000       0.0000000000000    
  8.4000000000000       0.0000000000000    
  8.8000000000000       0.0000000000000    
  9.2000000000000       0.0000000000000    
  9.6000000000000       4.9782898205158    
  10.000000000000       0.0000000000000    
  10.400000000000       0.0000000000000    
  10.800000000000       2.4662360813182    
  11.200000000000       4.9324721626364    
  11.600000000000       2.4662360813182    
  12.000000000000       0.0000000000000    
  12.400000000000       2.4724532052907    
  12.800000000000       0.0000000000000    
  13.200000000000       0.0000000000000    
  13.600000000000       0.0000000000000    
  14.000000000000       0.0000000000000    
  14.400000000000       0.0000000000000    
  14.800000000000       0.0000000000000    
  15.200000000000       0.0000000000000    
  15.600000000000       0.0000000000000    
  16.000000000000       0.0000000000000    
  16.400000000000       0.0000000000000    
  16.800000000000       2.5020402425822    
  17.200000000000       7.5066319387299    
  17.600000000000       0.0000000000000    
  18.000000000000       0.0000000000000    
  18.400000000000       0.0000000000000    
  18.800000000000       0.0000000000000    
  19.200000000000       2.5022958480739    
  19.600000000000       5.0563386759970    
  20.000000000000       0.0000000000000    
ZONE T= "Xw:     39.8300      Yw:     28.4100      Rw:    0.100000      Zwbot:     10.6000      Zwtop:     11.2000       Specie:  1 "
 0.40000000000000       0.0000000000000    
 0.80000000000000       2.4855875830455    
  1.2000000000000       0.0000000000000    
  1.6000000000000       0.0000000000000    
  2.0000000000000       17.527063990181    
  2.4000000000000       4.9698274064319    
  2.8000000000000       12.320746333250    
  3.2000000000000       4.9282985333001    
  3.6000000000000       5.0142747222648    
  4.0000000000000       2.5183361847508    
  4.4000000000000       17.477994482981    
  4.8000000000000       32.571240653406    
  5.2000000000000       12.581745857003    
  5.6000000000000       20.031214473234    
  6.0000000000000       27.471351074694    
  6.4000000000000       42.687432092399    
  6.8000000000000       32.431882032779    
  7.2000000000000       37.499930769544    
  7.6000000000000       19.931267204921    
  8.0000000000000       37.639364054334    
  8.4000000000000       24.976481274789    
  8.8000000000000       34.706548728296    
  9.2000000000000       22.406176018805    
  9.6000000000000       32.579642383328    
  10.000000000000       80.102646261487    
  10.400000000000       70.103023208671    
  10.800000000000       40.020847054838    
  11.200000000000       60.067412752475    
  11.600000000000       65.084128963164    
  12.000000000000       44.939924226653    
  12.400000000000       47.398639738415    
  12.800000000000       24.813337038363    
  13.200000000000       25.003429341967    
  13.600000000000       34.897641243595    
  14.000000000000       14.992881035300    
  14.400000000000       10.137784258966    
  14.800000000000       17.493813434946    
  15.200000000000       17.492551722031    
  15.600000000000       14.873970369210    
  16.000000000000       7.4842014272308    
  16.400000000000       9.9609095525336    
  16.800000000000       5.0205814331021    
  17.200000000000       2.5022958480739    
  17.600000000000       0.0000000000000    
  18.000000000000       7.4465439368454    
  18.400000000000       2.4935120242579    
  18.800000000000       12.452460949494    
  19.200000000000       12.495722177664    
  19.600000000000       12.451951877689    
  20.000000000000       2.5075930524450    
ZONE T= "Xw:     39.8300      Yw:     28.4100      Rw:    0.100000      Zwbot:     7.60000      Zwtop:     8.30000       Specie:  1 "
 0.40000000000000       0.0000000000000    
 0.80000000000000       0.0000000000000    
  1.2000000000000       0.0000000000000    
  1.6000000000000       0.0000000000000    
  2.0000000000000       2.5317665838404    
  2.4000000000000       0.0000000000000    
  2.8000000000000       2.5317665838404    
  3.2000000000000       5.0635331676809    
  3.6000000000000       5.0635331676809    
  4.0000000000000       10.023979447934    
  4.4000000000000       12.643735147542    
  4.8000000000000       7.5877508656912    
  5.2000000000000       20.100191095287    
  5.6000000000000       20.086604567938    
  6.0000000000000       35.052984658701    
  6.4000000000000       37.661120145872    
  6.8000000000000       32.398333256899    
  7.2000000000000       37.469127415691    
  7.6000000000000       12.534898395406    
  8.0000000000000       29.992779567551    
  8.4000000000000       24.974424056076    
  8.8000000000000       27.378420158540    
  9.2000000000000       22.520699073745    
  9.6000000000000       27.451099308997    
  10.000000000000       35.034268246848    
  10.400000000000       27.575057861616    
  10.800000000000       39.978986196439    
  11.200000000000       47.669747184684    
  11.600000000000       57.500579719541    
  12.000000000000       27.521353737058    
  12.400000000000       42.474269923627    
  12.800000000000       37.554888421176    
  13.200000000000       37.515764851893    
  13.600000000000       64.795673329802    
  14.000000000000       37.384042512961    
  14.400000000000       34.914441993754    
  14.800000000000       52.503846399051    
  15.200000000000       50.015652459797    
  15.600000000000       40.121252034760    
  16.000000000000       35.156476262486    
  16.400000000000       30.169502386755    
  16.800000000000       15.126475430523    
  17.200000000000       25.049902184510    
  17.600000000000       17.596015434769    
  18.000000000000       22.799881446747    
  18.400000000000       12.487401834124    
  18.800000000000       10.090940861027    
  19.200000000000       15.049810541167    
  19.600000000000       5.0246489544930    
  20.000000000000       7.5053905969843    
ZONE T= "Xw:     39.8300      Yw:     28.5100      Rw:    0.100000      Zwbot:     4.50000      Zwtop:     5.00000       Specie:  1 "
 0.40000000000000       22.796336111397    
 0.80000000000000       5.0185008699447    
  1.2000000000000       15.055728521743    
  1.6000000000000       22.691847193909    
  2.0000000000000       40.107518116520    
  2.4000000000000       19.987658555007    
  2.8000000000000       47.401553207515    
  3.2000000000000       22.420728343160    
  3.6000000000000       22.439783657772    
  4.0000000000000       34.986969044270    
  4.4000000000000       35.154746049359    
  4.8000000000000       32.512088922973    
  5.2000000000000       29.976534536934    
  5.6000000000000       27.369375466043    
  6.0000000000000       27.511906949952    
  6.4000000000000       39.993356500060    
  6.8000000000000       44.980507978071    
  7.2000000000000       57.289816496176    
  7.6000000000000       49.912103404927    
  8.0000000000000       62.480105512532    
  8.4000000000000       62.470230556212    
  8.8000000000000       39.814277561805    
  9.2000000000000       47.423512622806    
  9.6000000000000       32.281136183471    
  10.000000000000       34.837688791758    
  10.400000000000       29.967694171761    
  10.800000000000       7.5554415264907    
  11.200000000000       22.541481580445    
  11.600000000000       14.990411969434    
  12.000000000000       4.9627027688574    
  12.400000000000       2.5183361847508    
  12.800000000000       4.9974821236048    
  13.200000000000       9.8974336433208    
  13.600000000000       9.9448151316900    
  14.000000000000       2.4863155542310    
  14.400000000000       14.941587684771    
  14.800000000000       7.4416702386977    
  15.200000000000       2.4863155542310    
  15.600000000000       0.0000000000000    
  16.000000000000       0.0000000000000    
  16.400000000000       2.4863155542310    
  16.800000000000       4.9726311084620    
  17.200000000000       0.0000000000000    
  17.600000000000       7.4589466626930    
  18.000000000000       0.0000000000000    
  18.400000000000       0.0000000000000    
  18.800000000000       0.0000000000000    
  19.200000000000       0.0000000000000    
  19.600000000000       0.0000000000000    
  20.000000000000       0.0000000000000    
ZONE T= "Xw:     39.5300      Yw:     34.0100      Rw:    0.100000      Zwbot:     16.7000      Zwtop:     17.3000       Specie:  1 "
 0.40000000000000       19.784287678321    
 0.80000000000000       2.4730359597902    
  1.2000000000000       9.9884602219685    
  1.6000000000000       7.5794067500925    
  2.0000000000000       9.9990097529754    
  2.4000000000000       15.050946723777    
  2.8000000000000       9.9411563395808    
  3.2000000000000       5.0022442286040    
  3.6000000000000       9.9202299936725    
  4.0000000000000       5.0545588700619    
  4.4000000000000       12.496485530036    
  4.8000000000000       0.0000000000000    
  5.2000000000000       2.4801018744357    
  5.6000000000000       9.9611521414654    
  6.0000000000000       2.5226003886588    
  6.4000000000000       2.4728584392297    
  6.8000000000000       15.048635826730    
  7.2000000000000       14.903829245150    
  7.6000000000000       19.970405922741    
  8.0000000000000       10.009119281235    
  8.4000000000000       19.949386290473    
  8.8000000000000       24.897240532696    
  9.2000000000000       17.441004399109    
  9.6000000000000       27.422122567906    
  10.000000000000       22.438364117827    
  10.400000000000       32.623693026099    
  10.800000000000       27.425886197651    
  11.200000000000       17.576974737303    
  11.600000000000       29.974106025989    
  12.000000000000       17.382528473466    
  12.400000000000       29.931566685139    
  12.800000000000       17.413326024293    
  13.200000000000       7.5389177508419    
  13.600000000000       7.5352725121862    
  14.000000000000       7.5274857770156    
  14.400000000000       12.447132462961    
  14.800000000000       2.5196208979356    
  15.200000000000       9.9821561902647    
  15.600000000000       10.006772427813    
  16.000000000000       12.506714440322    
  16.400000000000       7.5726852598349    
  16.800000000000       29.999737785276    
  17.200000000000       4.9796692189424    
  17.600000000000       7.4660413147879    
  18.000000000000       10.043054312027    
  18.400000000000       7.4352413101396    
  18.800000000000       12.473946410406    
  19.200000000000       7.5004845349751    
  19.600000000000       10.087295937943    
  20.000000000000       0.0000000000000    
ZONE T= "Xw:     39.5300      Yw:     34.1100      Rw:    0.100000      Zwbot:     13.5000      Zwtop:     14.0000       Specie:  1 "
 0.40000000000000       0.0000000000000    
 0.80000000000000       0.0000000000000    
  1.2000000000000       0.0000000000000    
  1.6000000000000       0.0000000000000    
  2.0000000000000       0.0000000000000    
  2.4000000000000       0.0000000000000    
  2.8000000000000       0.0000000000000    
  3.2000000000000       0.0000000000000    
  3.6000000000000       0.0000000000000    
  4.0000000000000       0.0000000000000    
  4.4000000000000       2.5140020497810    
  4.8000000000000       5.0280040995620    
  5.2000000000000       0.0000000000000    
  5.6000000000000       5.0045498915917    
  6.0000000000000       7.5175874971657    
  6.4000000000000       0.0000000000000    
  6.8000000000000       7.5068248373875    
  7.2000000000000       14.966017908909    
  7.6000000000000       9.9704439789573    
  8.0000000000000       4.9760371687609    
  8.4000000000000       7.4527774340280    
  8.8000000000000       9.9687823155585    
  9.2000000000000       2.5022749457958    
  9.6000000000000       14.995762058390    
  10.000000000000       25.056325719830    
  10.400000000000       39.940670070295    
  10.800000000000       12.425361958663    
  11.200000000000       17.408344251306    
  11.600000000000       27.441740860330    
  12.000000000000       14.981264821504    
  12.400000000000       5.0184834217684    
  12.800000000000       15.022959993349    
  13.200000000000       22.558578990784    
  13.600000000000       35.063186503970    
  14.000000000000       42.362885701429    
  14.400000000000       37.281925160930    
  14.800000000000       25.033882459041    
  15.200000000000       25.034221027013    
  15.600000000000       17.494801261585    
  16.000000000000       15.016467911473    
  16.400000000000       22.513364037870    
  16.800000000000       35.056046062586    
  17.200000000000       17.476536699933    
  17.600000000000       27.440088178461    
  18.000000000000       50.017087585115    
  18.400000000000       39.983575517084    
  18.800000000000       22.466656040767    
  19.200000000000       32.454440587312    
  19.600000000000       27.470014754606    
  20.000000000000       9.9852459517836    
ZONE T= "Xw:     39.4300      Yw:     34.0100      Rw:    0.100000      Zwbot:     10.5000      Zwtop:     11.1000       Specie:  1 "
 0.40000000000000       22.386235624412    
 0.80000000000000       4.9569706117930    
  1.2000000000000       14.879397151960    
  1.6000000000000       2.4743122608478    
  2.0000000000000       10.091760204838    
  2.4000000000000       29.914620405609    
  2.8000000000000       30.000186422075    
  3.2000000000000       37.517850817833    
  3.6000000000000       25.009561316427    
  4.0000000000000       37.503424301250    
  4.4000000000000       42.604048340418    
  4.8000000000000       7.5440033501204    
  5.2000000000000       29.979272881467    
  5.6000000000000       14.959507569011    
  6.0000000000000       24.930359033466    
  6.4000000000000       29.956327387032    
  6.8000000000000       29.993658172316    
  7.2000000000000       32.462133950820    
  7.6000000000000       22.615629953333    
  8.0000000000000       40.075314180770    
  8.4000000000000       30.045584152628    
  8.8000000000000       27.355388942643    
  9.2000000000000       37.434744503369    
  9.6000000000000       34.875003645041    
  10.000000000000       37.572199440486    