 TITLE="TECPLOT input file: Breakthrough Curves" 
 VARIABLES="Time" "Concentrations" 
ZONE T= "Xw:     39.9300      Yw:     22.4100      Rw:    0.100000      Zwbot:     16.5000      Zwtop:     17.0000       Specie:  1 "
 0.40000000000000       0.0000000000000    
 0.80000000000000       0.0000000000000    
  1.2000000000000       0.0000000000000    
  1.6000000000000       0.0000000000000    
  2.0000000000000       0.0000000000000    
  2.4000000000000       0.0000000000000    
  2.8000000000000       0.0000000000000    
  3.2000000000000       0.0000000000000    
  3.6000000000000       0.0000000000000    
  4.0000000000000       0.0000000000000    
  4.4000000000000       0.0000000000000    
  4.8000000000000       0.0000000000000    
  5.2000000000000       0.0000000000000    
  5.6000000000000       0.0000000000000    
  6.0000000000000       0.0000000000000    
  6.4000000000000       0.0000000000000    
  6.8000000000000       0.0000000000000    
  7.2000000000000       0.0000000000000    
  7.6000000000000       0.0000000000000    
  8.0000000000000       0.0000000000000    
  8.4000000000000       0.0000000000000    
  8.8000000000000       0.0000000000000    
  9.2000000000000       0.0000000000000    
  9.6000000000000       0.0000000000000    
  10.000000000000       0.0000000000000    
  10.400000000000       0.0000000000000    
  10.800000000000       0.0000000000000    
  11.200000000000       0.0000000000000    
  11.600000000000       0.0000000000000    
  12.000000000000       7.4847246807479    
  12.400000000000       4.9898164538319    
  12.800000000000       0.0000000000000    
  13.200000000000       0.0000000000000    
  13.600000000000       0.0000000000000    
  14.000000000000       0.0000000000000    
  14.400000000000       0.0000000000000    
  14.800000000000       0.0000000000000    
  15.200000000000       0.0000000000000    
  15.600000000000       4.9684313030158    
  16.000000000000       14.926679059863    
  16.400000000000       17.488731318481    
  16.800000000000       7.4526469545237    
  17.200000000000       12.481980002593    
  17.600000000000       14.986496235785    
  18.000000000000       7.4667931182688    
  18.400000000000       7.4923812576536    
  18.800000000000       0.0000000000000    
  19.200000000000       0.0000000000000    
  19.600000000000       0.0000000000000    
  20.000000000000       0.0000000000000    
ZONE T= "Xw:     39.9300      Yw:     22.4100      Rw:    0.100000      Zwbot:     13.5000      Zwtop:     14.0000       Specie:  1 "
 0.40000000000000       0.0000000000000    
 0.80000000000000       0.0000000000000    
  1.2000000000000       0.0000000000000    
  1.6000000000000       0.0000000000000    
  2.0000000000000       0.0000000000000    
  2.4000000000000       0.0000000000000    
  2.8000000000000       0.0000000000000    
  3.2000000000000       0.0000000000000    
  3.6000000000000       0.0000000000000    
  4.0000000000000       0.0000000000000    
  4.4000000000000       0.0000000000000    
  4.8000000000000       0.0000000000000    
  5.2000000000000       0.0000000000000    
  5.6000000000000       0.0000000000000    
  6.0000000000000       0.0000000000000    
  6.4000000000000       0.0000000000000    
  6.8000000000000       0.0000000000000    
  7.2000000000000       0.0000000000000    
  7.6000000000000       0.0000000000000    
  8.0000000000000       0.0000000000000    
  8.4000000000000       0.0000000000000    
  8.8000000000000       0.0000000000000    
  9.2000000000000       0.0000000000000    
  9.6000000000000       0.0000000000000    
  10.000000000000       0.0000000000000    
  10.400000000000       0.0000000000000    
  10.800000000000       0.0000000000000    
  11.200000000000       0.0000000000000    
  11.600000000000       0.0000000000000    
  12.000000000000       0.0000000000000    
  12.400000000000       0.0000000000000    
  12.800000000000       0.0000000000000    
  13.200000000000       0.0000000000000    
  13.600000000000       0.0000000000000    
  14.000000000000       0.0000000000000    
  14.400000000000       10.000733033285    
  14.800000000000       0.0000000000000    
  15.200000000000       0.0000000000000    
  15.600000000000       0.0000000000000    
  16.000000000000       2.5002415113718    
  16.400000000000       2.5000084991694    
  16.800000000000       0.0000000000000    
  17.200000000000       0.0000000000000    
  17.600000000000       5.0004830227436    
  18.000000000000       5.0004830227436    
  18.400000000000       7.5110147153964    
  18.800000000000       5.0291699547462    
  19.200000000000       15.033567440204    
  19.600000000000       7.4813251691374    
  20.000000000000       2.5003222790474    
ZONE T= "Xw:     39.9300      Yw:     22.3100      Rw:    0.100000      Zwbot:     10.5000      Zwtop:     11.0000       Specie:  1 "
 0.40000000000000       0.0000000000000    
 0.80000000000000       0.0000000000000    
  1.2000000000000       0.0000000000000    
  1.6000000000000       0.0000000000000    
  2.0000000000000       0.0000000000000    
  2.4000000000000       0.0000000000000    
  2.8000000000000       0.0000000000000    
  3.2000000000000       0.0000000000000    
  3.6000000000000       4.9887764655907    
  4.0000000000000       2.4943882327953    
  4.4000000000000       0.0000000000000    
  4.8000000000000       5.0253633645523    
  5.2000000000000       2.5111419525858    
  5.6000000000000       7.5365053171381    
  6.0000000000000       20.098373998829    
  6.4000000000000       2.5126816822761    
  6.8000000000000       12.547084582997    
  7.2000000000000       7.5175972991085    
  7.6000000000000       5.0079950762130    
  8.0000000000000       9.9523779712310    
  8.4000000000000       15.015496552518    
  8.8000000000000       40.030344877278    
  9.2000000000000       17.519944477375    
  9.6000000000000       44.931132465355    
  10.000000000000       60.184023038591    
  10.400000000000       25.166280200455    
  10.800000000000       17.467048449840    
  11.200000000000       22.440308191807    
  11.600000000000       39.929324898174    
  12.000000000000       39.949635852756    
  12.400000000000       42.541474847527    
  12.800000000000       17.530887007773    
  13.200000000000       27.461665667048    
  13.600000000000       47.412928751688    
  14.000000000000       27.399366715734    
  14.400000000000       22.462024097117    
  14.800000000000       14.990864965666    
  15.200000000000       9.9713283995290    
  15.600000000000       24.967377680207    
  16.000000000000       17.578447232200    
  16.400000000000       15.016186906155    
  16.800000000000       9.9678202571901    
  17.200000000000       12.537133711019    
  17.600000000000       2.4752829978533    
  18.000000000000       9.9239195246898    
  18.400000000000       0.0000000000000    
  18.800000000000       0.0000000000000    
  19.200000000000       7.4942115933897    
  19.600000000000       0.0000000000000    
  20.000000000000       0.0000000000000    
ZONE T= "Xw:     40.0300      Yw:     22.4100      Rw:    0.100000      Zwbot:     7.60000      Zwtop:     8.10000       Specie:  1 "
 0.40000000000000       0.0000000000000    
 0.80000000000000       0.0000000000000    
  1.2000000000000       0.0000000000000    
  1.6000000000000       0.0000000000000    
  2.0000000000000       0.0000000000000    
  2.4000000000000       0.0000000000000    
  2.8000000000000       0.0000000000000    
  3.2000000000000       0.0000000000000    
  3.6000000000000       0.0000000000000    
  4.0000000000000       0.0000000000000    
  4.4000000000000       0.0000000000000    
  4.8000000000000       2.5240550146193    
  5.2000000000000       17.592548831055    
  5.6000000000000       27.614820110543    
  6.0000000000000       15.052653091011    
  6.4000000000000       5.0064536995127    
  6.8000000000000       20.070340474119    
  7.2000000000000       15.033684582133    
  7.6000000000000       42.642872512990    
  8.0000000000000       22.473688536692    
  8.4000000000000       29.938694301236    
  8.8000000000000       24.992055199241    
  9.2000000000000       34.943274830954    
  9.6000000000000       24.960561132148    
  10.000000000000       79.860351274221    
  10.400000000000       55.039451333129    
  10.800000000000       29.873176244023    
  11.200000000000       24.956563004869    
  11.600000000000       52.531224232064    
  12.000000000000       52.510463631763    
  12.400000000000       47.520659778881    
  12.800000000000       47.618887659315    
  13.200000000000       45.076669723759    
  13.600000000000       49.982496130846    
  14.000000000000       27.471985546494    
  14.400000000000       47.607205032573    
  14.800000000000       45.048739159596    
  15.200000000000       22.542317970193    
  15.600000000000       14.983013422957    
  16.000000000000       4.9519050940964    
  16.400000000000       12.370423500260    
  16.800000000000       12.463508997245    
  17.200000000000       7.4618497189126    
  17.600000000000       2.5157655148924    
  18.000000000000       2.4724484195026    
  18.400000000000       2.5157655148924    
  18.800000000000       7.4463126816655    
  19.200000000000       7.4463126816655    
  19.600000000000       4.9642084544437    
  20.000000000000       2.4945511290328    
ZONE T= "Xw:     39.9300      Yw:     22.4100      Rw:    0.100000      Zwbot:     4.50000      Zwtop:     5.00000       Specie:  1 "
 0.40000000000000       0.0000000000000    
 0.80000000000000       0.0000000000000    
  1.2000000000000       0.0000000000000    
  1.6000000000000       0.0000000000000    
  2.0000000000000       0.0000000000000    
  2.4000000000000       0.0000000000000    
  2.8000000000000       0.0000000000000    
  3.2000000000000       0.0000000000000    
  3.6000000000000       0.0000000000000    
  4.0000000000000       0.0000000000000    
  4.4000000000000       4.9936422023538    
  4.8000000000000       15.018696044295    
  5.2000000000000       15.010429442556    
  5.6000000000000       12.497172573610    
  6.0000000000000       19.959018550870    
  6.4000000000000       45.113715937089    
  6.8000000000000       27.407402274884    
  7.2000000000000       35.138715315453    
  7.6000000000000       37.504330984846    
  8.0000000000000       20.012582688213    
  8.4000000000000       37.528604563556    
  8.8000000000000       37.610455646415    
  9.2000000000000       39.965648977769    
  9.6000000000000       47.535982396428    
  10.000000000000       55.021746177744    
  10.400000000000       70.329754820826    
  10.800000000000       40.123308140807    
  11.200000000000       35.183278930964    
  11.600000000000       19.959030282877    
  12.000000000000       10.099797836037    
  12.400000000000       29.993915800499    
  12.800000000000       40.043953986322    
  13.200000000000       50.162612002373    
  13.600000000000       24.984067616825    
  14.000000000000       20.100842946551    
  14.400000000000       5.0141091477963    
  14.800000000000       12.435319328390    
  15.200000000000       17.477831256945    
  15.600000000000       2.4868982094378    
  16.000000000000       5.0130634065935    
  16.400000000000       0.0000000000000    
  16.800000000000       0.0000000000000    
  17.200000000000       12.548285642980    
  17.600000000000       2.5050516154281    
  18.000000000000       12.430227826502    
  18.400000000000       5.0015360285870    
  18.800000000000       7.4500471643197    
  19.200000000000       9.9673498744322    
  19.600000000000       5.0337281308964    
  20.000000000000       2.5093807440707    
ZONE T= "Xw:     39.8300      Yw:     28.4100      Rw:    0.100000      Zwbot:     16.5000      Zwtop:     17.0000       Specie:  1 "
 0.40000000000000       0.0000000000000    
 0.80000000000000       0.0000000000000    
  1.2000000000000       0.0000000000000    
  1.6000000000000       0.0000000000000    
  2.0000000000000       0.0000000000000    
  2.4000000000000       0.0000000000000    
  2.8000000000000       0.0000000000000    
  3.2000000000000       0.0000000000000    
  3.6000000000000       0.0000000000000    
  4.0000000000000       0.0000000000000    
  4.4000000000000       0.0000000000000    
  4.8000000000000       2.5284970160363    
  5.2000000000000       2.4748461788967    
  5.6000000000000       22.357835155394    
  6.0000000000000       17.519629322377    
  6.4000000000000       14.928032829971    
  6.8000000000000       14.877633989382    
  7.2000000000000       7.4198553102143    
  7.6000000000000       12.417412061740    
  8.0000000000000       15.030099039785    
  8.4000000000000       7.4155970877977    
  8.8000000000000       17.314425037039    
  9.2000000000000       9.8973210582124    
  9.6000000000000       5.0192936773059    
  10.000000000000       24.955384445799    
  10.400000000000       2.4748461788967    
  10.800000000000       0.0000000000000    
  11.200000000000       4.9577271258377    
  11.600000000000       12.463929333116    
  12.000000000000       29.981662068014    
  12.400000000000       14.957736380108    
  12.800000000000       12.539052284008    
  13.200000000000       12.644122943907    
  13.600000000000       12.527146202365    
  14.000000000000       4.9931199988142    
  14.400000000000       10.122721390104    
  14.800000000000       5.0310483924558    
  15.200000000000       12.499086509996    
  15.600000000000       2.4784070179791    
  16.000000000000       14.990579937799    
  16.400000000000       10.005559324092    
  16.800000000000       2.5020363238884    
  17.200000000000       5.0040726477768    
  17.600000000000       2.5226542399585    
  18.000000000000       14.971076366681    
  18.400000000000       4.9765199405178    
  18.800000000000       2.4538657005592    
  19.200000000000       0.0000000000000    
  19.600000000000       7.4701477977224    
  20.000000000000       7.5315248635649    
ZONE T= "Xw:     39.9300      Yw:     28.4100      Rw:    0.100000      Zwbot:     13.5000      Zwtop:     14.0000       Specie:  1 "
 0.40000000000000       0.0000000000000    
 0.80000000000000       0.0000000000000    
  1.2000000000000       0.0000000000000    
  1.6000000000000       0.0000000000000    
  2.0000000000000       0.0000000000000    
  2.4000000000000       0.0000000000000    
  2.8000000000000       0.0000000000000    
  3.2000000000000       0.0000000000000    
  3.6000000000000       0.0000000000000    
  4.0000000000000       0.0000000000000    
  4.4000000000000       0.0000000000000    
  4.8000000000000       0.0000000000000    
  5.2000000000000       0.0000000000000    
  5.6000000000000       0.0000000000000    
  6.0000000000000       0.0000000000000    
  6.4000000000000       0.0000000000000    
  6.8000000000000       0.0000000000000    
  7.2000000000000       0.0000000000000    
  7.6000000000000       0.0000000000000    
  8.0000000000000       0.0000000000000    
  8.4000000000000       0.0000000000000    
  8.8000000000000       0.0000000000000    
  9.2000000000000       0.0000000000000    
  9.6000000000000       0.0000000000000    
  10.000000000000       0.0000000000000    
  10.400000000000       0.0000000000000    
  10.800000000000       0.0000000000000    
  11.200000000000       0.0000000000000    
  11.600000000000       0.0000000000000    
  12.000000000000       5.0585992993349    
  12.400000000000       7.5813275746798    
  12.800000000000       2.5292996496674    
  13.200000000000       0.0000000000000    
  13.600000000000       0.0000000000000    
  14.000000000000       2.4538657005592    
  14.400000000000       5.0412318421513    
  14.800000000000       5.0579715577843    
  15.200000000000       4.9831653502267    
  15.600000000000       12.502192621056    
  16.000000000000       17.549368095979    
  16.400000000000       12.609880109318    
  16.800000000000       19.937413000353    
  17.200000000000       10.087336014931    
  17.600000000000       10.026764178839    
  18.000000000000       7.5090321474525    
  18.400000000000       0.0000000000000    
  18.800000000000       2.5286719081169    
  19.200000000000       7.5026001537434    
  19.600000000000       4.9669920478942    
  20.000000000000       5.0103424206572    
ZONE T= "Xw:     39.8300      Yw:     28.4100      Rw:    0.100000      Zwbot:     10.6000      Zwtop:     11.2000       Specie:  1 "
 0.40000000000000       0.0000000000000    
 0.80000000000000       0.0000000000000    
  1.2000000000000       0.0000000000000    
  1.6000000000000       0.0000000000000    
  2.0000000000000       9.9280578847988    
  2.4000000000000       7.5192084925001    
  2.8000000000000       17.563650120438    
  3.2000000000000       2.4701629524209    
  3.6000000000000       9.9667818993788    
  4.0000000000000       22.498886145403    
  4.4000000000000       17.290269927555    
  4.8000000000000       19.890662944473    
  5.2000000000000       34.817686548896    
  5.6000000000000       20.000993098554    
  6.0000000000000       32.484169088638    
  6.4000000000000       15.051921607724    
  6.8000000000000       7.4769407588992    
  7.2000000000000       32.626509202047    
  7.6000000000000       19.903007085860    
  8.0000000000000       17.403836803245    
  8.4000000000000       52.662589225989    
  8.8000000000000       37.412724311326    
  9.2000000000000       47.621288942990    
  9.6000000000000       70.161675133316    
  10.000000000000       42.498172789188    
  10.400000000000       27.518590506479    
  10.800000000000       47.716423149576    
  11.200000000000       47.747609680197    
  11.600000000000       50.045695272883    
  12.000000000000       32.659086539732    
  12.400000000000       27.549217003784    
  12.800000000000       44.700239639282    
  13.200000000000       39.963582139382    
  13.600000000000       20.075311085280    
  14.000000000000       19.940432775898    
  14.400000000000       24.855270479305    
  14.800000000000       27.565010917411    
  15.200000000000       20.104115588964    
  15.600000000000       25.212780867212    
  16.000000000000       12.477509876119    
  16.400000000000       27.492241871036    
  16.800000000000       19.901614027223    
  17.200000000000       14.993122749800    
  17.600000000000       17.565269458547    
  18.000000000000       17.463910746816    
  18.400000000000       22.497114906581    
  18.800000000000       5.0333666234319    
  19.200000000000       9.9865695391273    
  19.600000000000       2.5151988091213    
  20.000000000000       0.0000000000000    
ZONE T= "Xw:     39.8300      Yw:     28.4100      Rw:    0.100000      Zwbot:     7.60000      Zwtop:     8.30000       Specie:  1 "
 0.40000000000000       0.0000000000000    
 0.80000000000000       0.0000000000000    
  1.2000000000000       0.0000000000000    
  1.6000000000000       2.4972960315167    
  2.0000000000000       2.4972960315167    
  2.4000000000000       0.0000000000000    
  2.8000000000000       7.4037962032578    
  3.2000000000000       0.0000000000000    
  3.6000000000000       2.5136796303445    
  4.0000000000000       2.5097674418605    
  4.4000000000000       2.5284970160363    
  4.8000000000000       5.0742519659515    
  5.2000000000000       4.9822842768896    
  5.6000000000000       30.128864854228    
  6.0000000000000       30.203047574464    
  6.4000000000000       35.030960758565    
  6.8000000000000       29.908673516859    
  7.2000000000000       44.983281028730    
  7.6000000000000       24.989727807709    
  8.0000000000000       34.881525896344    
  8.4000000000000       42.493064280785    
  8.8000000000000       35.103427078322    
  9.2000000000000       40.002449201555    
  9.6000000000000       29.832781600715    
  10.000000000000       12.476790778936    
  10.400000000000       27.635070249182    
  10.800000000000       35.050380242452    
  11.200000000000       24.973906833969    
  11.600000000000       14.929676985220    
  12.000000000000       17.493999756150    
  12.400000000000       17.569689252475    
  12.800000000000       49.817051877333    
  13.200000000000       32.297488842206    
  13.600000000000       17.320484705969    
  14.000000000000       34.885705840055    
  14.400000000000       27.381903213205    
  14.800000000000       42.557522158477    
  15.200000000000       34.857731371313    
  15.600000000000       49.880842235702    
  16.000000000000       15.025339236257    
  16.400000000000       27.625901696141    
  16.800000000000       27.509250474151    
  17.200000000000       19.904823840701    
  17.600000000000       17.618600162887    
  18.000000000000       20.146190019106    
  18.400000000000       15.046644734206    
  18.800000000000       12.553070240881    
  19.200000000000       17.544558974324    
  19.600000000000       15.079372572032    
  20.000000000000       17.532837723383    
ZONE T= "Xw:     39.8300      Yw:     28.5100      Rw:    0.100000      Zwbot:     4.50000      Zwtop:     5.00000       Specie:  1 "
 0.40000000000000       4.9218105093674    
 0.80000000000000       5.0067533408376    
  1.2000000000000       19.989552769239    
  1.6000000000000       14.856378515310    
  2.0000000000000       20.037026248560    
  2.4000000000000       32.491806085165    
  2.8000000000000       32.565202090607    
  3.2000000000000       27.464659149257    
  3.6000000000000       39.876786913004    
  4.0000000000000       42.293707438027    
  4.4000000000000       52.116125764907    
  4.8000000000000       49.991715855348    
  5.2000000000000       47.347832343132    
  5.6000000000000       39.887626225882    
  6.0000000000000       34.952108603794    
  6.4000000000000       27.458501367150    
  6.8000000000000       64.780608457493    
  7.2000000000000       59.957980726337    
  7.6000000000000       32.479751928755    
  8.0000000000000       42.570938989261    
  8.4000000000000       47.737215458636    
  8.8000000000000       20.003548966037    
  9.2000000000000       25.001701330861    
  9.6000000000000       27.406186468514    
  10.000000000000       24.980134901532    
  10.400000000000       25.012897762041    
  10.800000000000       24.861124213661    
  11.200000000000       27.661744829445    
  11.600000000000       22.583361707742    
  12.000000000000       22.353962556555    
  12.400000000000       24.989276009850    
  12.800000000000       30.069434092127    
  13.200000000000       25.021645728478    
  13.600000000000       25.012607047172    
  14.000000000000       4.9814985258091    
  14.400000000000       2.5305487928730    
  14.800000000000       0.0000000000000    
  15.200000000000       0.0000000000000    
  15.600000000000       5.0235497656659    
  16.000000000000       0.0000000000000    
  16.400000000000       0.0000000000000    
  16.800000000000       0.0000000000000    
  17.200000000000       0.0000000000000    
  17.600000000000       0.0000000000000    
  18.000000000000       0.0000000000000    
  18.400000000000       0.0000000000000    
  18.800000000000       0.0000000000000    
  19.200000000000       0.0000000000000    
  19.600000000000       0.0000000000000    
  20.000000000000       0.0000000000000    
ZONE T= "Xw:     39.5300      Yw:     34.0100      Rw:    0.100000      Zwbot:     16.7000      Zwtop:     17.3000       Specie:  1 "
 0.40000000000000       27.617443922777    
 0.80000000000000       2.4856110142983    
  1.2000000000000       2.4856110142983    
  1.6000000000000       4.9712220285967    
  2.0000000000000       12.585610937489    
  2.4000000000000       7.5090298327996    
  2.8000000000000       12.481842108521    
  3.2000000000000       7.4949337443821    
  3.6000000000000       4.9840298520018    
  4.0000000000000       9.9724245642457    
  4.4000000000000       19.951239623070    
  4.8000000000000       12.562091540357    
  5.2000000000000       10.079668697727    
  5.6000000000000       12.494000214309    
  6.0000000000000       29.902619739615    
  6.4000000000000       17.442015447710    
  6.8000000000000       27.612610045036    
  7.2000000000000       7.5517006483702    
  7.6000000000000       14.949796798558    
  8.0000000000000       20.003004395394    
  8.4000000000000       15.036438021048    
  8.8000000000000       14.970553550252    
  9.2000000000000       12.485801679929    
  9.6000000000000       2.5018490510486    
  10.000000000000       15.007757635007    
  10.400000000000       10.034367672833    
  10.800000000000       22.598876073296    
  11.200000000000       22.550248650507    
  11.600000000000       12.535910953269    
  12.000000000000       12.419116514584    
  12.400000000000       9.9623202318064    
  12.800000000000       22.380416675220    
  13.200000000000       12.544944997745    
  13.600000000000       27.356423605712    
  14.000000000000       22.616437323972    
  14.400000000000       10.044295789770    
  14.800000000000       14.907268080243    
  15.200000000000       7.4598052775382    
  15.600000000000       5.0575001300972    
  16.000000000000       5.0136400338610    
  16.400000000000       5.0020814144045    
  16.800000000000       17.413043731166    
  17.200000000000       22.427179272582    
  17.600000000000       20.015123581163    
  18.000000000000       29.917903097625    
  18.400000000000       12.508786200705    
  18.800000000000       0.0000000000000    
  19.200000000000       32.503546832999    
  19.600000000000       17.420812933087    
  20.000000000000       7.5017081402113    
ZONE T= "Xw:     39.5300      Yw:     34.1100      Rw:    0.100000      Zwbot:     13.5000      Zwtop:     14.0000       Specie:  1 "
 0.40000000000000       0.0000000000000    
 0.80000000000000       0.0000000000000    
  1.2000000000000       0.0000000000000    
  1.6000000000000       0.0000000000000    
  2.0000000000000       0.0000000000000    
  2.4000000000000       0.0000000000000    
  2.8000000000000       0.0000000000000    
  3.2000000000000       0.0000000000000    
  3.6000000000000       0.0000000000000    
  4.0000000000000       2.5239086304755    
  4.4000000000000       2.5239086304755    
  4.8000000000000       2.5121938725048    
  5.2000000000000       0.0000000000000    
  5.6000000000000       0.0000000000000    
  6.0000000000000       0.0000000000000    
  6.4000000000000       2.5256204313235    
  6.8000000000000       7.4827441691046    
  7.2000000000000       5.0013324126520    
  7.6000000000000       7.4845869073925    
  8.0000000000000       0.0000000000000    
  8.4000000000000       10.051675049092    
  8.8000000000000       7.4775501682087    
  9.2000000000000       12.486073786143    
  9.6000000000000       12.580264288938    
  10.000000000000       12.614665497683    
  10.400000000000       12.475282207035    
  10.800000000000       7.4331020378320    
  11.200000000000       32.546839399794    
  11.600000000000       12.452807373001    
  12.000000000000       7.4880371312058    
  12.400000000000       7.4881805209824    
  12.800000000000       14.970763697423    
  13.200000000000       22.440655174981    
  13.600000000000       15.093426522152    
  14.000000000000       19.932663987631    
  14.400000000000       2.4994477094767    
  14.800000000000       17.431317933322    
  15.200000000000       47.588426838152    
  15.600000000000       32.585950793096    
  16.000000000000       42.437260220325    
  16.400000000000       37.347500428115    
  16.800000000000       24.906885754297    
  17.200000000000       19.963234566576    
  17.600000000000       27.472351417950    
  18.000000000000       35.059385098869    
  18.400000000000       24.970457202576    
  18.800000000000       19.945286532894    
  19.200000000000       7.5304325153057    
  19.600000000000       12.528687164575    
  20.000000000000       22.561480976445    
ZONE T= "Xw:     39.4300      Yw:     34.0100      Rw:    0.100000      Zwbot:     10.5000      Zwtop:     11.1000       Specie:  1 "
 0.40000000000000       0.0000000000000    
 0.80000000000000       0.0000000000000    
  1.2000000000000       7.5130476430173    
  1.6000000000000       15.014321801506    
  2.0000000000000       14.809664075711    
  2.4000000000000       7.4672799404990    
  2.8000000000000       34.796630679087    
  3.2000000000000       25.082349898795    
  3.6000000000000       20.174126987232    
  4.0000000000000       30.106807663052    
  4.4000000000000       37.657239331566    
  4.8000000000000       25.095178222082    
  5.2000000000000       22.591507013017    
  5.6000000000000       15.023546983479    
  6.0000000000000       30.088369630820    
  6.4000000000000       39.868245750884    
  6.8000000000000       52.506523525537    
  7.2000000000000       22.493480966190    
  7.6000000000000       32.579652742662    
  8.0000000000000       27.434054801105    
  8.4000000000000       12.537907777033    
  8.8000000000000       42.491028031238    
  9.2000000000000       37.640417138008    
  9.6000000000000       35.067903864609    
  10.000000000000       57.523830332536    