 TITLE="TECPLOT input file: Breakthrough Curves" 
 VARIABLES="Time" "Concentrations" 
ZONE T= "Xw:     39.9300      Yw:     22.4100      Rw:    0.100000      Zwbot:     16.5000      Zwtop:     17.0000       Specie:  1 "
  0.0000000000000       0.0000000000000    
  0.0000000000000       0.0000000000000    
  0.0000000000000       0.0000000000000    
  0.0000000000000       0.0000000000000    
  0.0000000000000       0.0000000000000    
  0.0000000000000       0.0000000000000    
  0.0000000000000       0.0000000000000    
  0.0000000000000       0.0000000000000    
  0.0000000000000       0.0000000000000    
  0.0000000000000       0.0000000000000    
  0.0000000000000       0.0000000000000    
  0.0000000000000       0.0000000000000    
  0.0000000000000       0.0000000000000    
  0.0000000000000       0.0000000000000    
  0.0000000000000       0.0000000000000    
  0.0000000000000       0.0000000000000    
  0.0000000000000       0.0000000000000    
  0.0000000000000       0.0000000000000    
  0.0000000000000       0.0000000000000    
  0.0000000000000       0.0000000000000    
  0.0000000000000       0.0000000000000    
  0.0000000000000       0.0000000000000    
  0.0000000000000       0.0000000000000    
  0.0000000000000       0.0000000000000    
  0.0000000000000       0.0000000000000    
  0.0000000000000       0.0000000000000    
  0.0000000000000       0.0000000000000    
  0.0000000000000       0.0000000000000    
  0.0000000000000       0.0000000000000    
  0.0000000000000       0.0000000000000    
  0.0000000000000       0.0000000000000    
  0.0000000000000       0.0000000000000    
  0.0000000000000       0.0000000000000    
  0.0000000000000       0.0000000000000    
  0.0000000000000       0.0000000000000    
  0.0000000000000       0.0000000000000    
  0.0000000000000       0.0000000000000    
  0.0000000000000       0.0000000000000    
  0.0000000000000       0.0000000000000    
  0.0000000000000       0.0000000000000    
  0.0000000000000       0.0000000000000    
  0.0000000000000       0.0000000000000    
  0.0000000000000       0.0000000000000    
  0.0000000000000       0.0000000000000    
  0.0000000000000       0.0000000000000    
  0.0000000000000       0.0000000000000    
  0.0000000000000       0.0000000000000    
  0.0000000000000       0.0000000000000    
  0.0000000000000       0.0000000000000    
  0.0000000000000       0.0000000000000    
ZONE T= "Xw:     39.9300      Yw:     22.4100      Rw:    0.100000      Zwbot:     13.5000      Zwtop:     14.0000       Specie:  1 "
 0.40000000000000       0.0000000000000    
 0.80000000000000       0.0000000000000    
  1.2000000000000       0.0000000000000    
  1.6000000000000       0.0000000000000    
  2.0000000000000       0.0000000000000    
  2.4000000000000       0.0000000000000    
  2.8000000000000       0.0000000000000    
  3.2000000000000       0.0000000000000    
  3.6000000000000       0.0000000000000    
  4.0000000000000       0.0000000000000    
  4.4000000000000       0.0000000000000    
  4.8000000000000       0.0000000000000    
  5.2000000000000       0.0000000000000    
  5.6000000000000       0.0000000000000    
  6.0000000000000       0.0000000000000    
  6.4000000000000       0.0000000000000    
  6.8000000000000       0.0000000000000    
  7.2000000000000       0.0000000000000    
  7.6000000000000       0.0000000000000    
  8.0000000000000       0.0000000000000    
  8.4000000000000       0.0000000000000    
  8.8000000000000       0.0000000000000    
  9.2000000000000       0.0000000000000    
  9.6000000000000       0.0000000000000    
  10.000000000000       0.0000000000000    
  10.400000000000       0.0000000000000    
  10.800000000000       2.5197609899469    
  11.200000000000       0.0000000000000    
  11.600000000000       0.0000000000000    
  12.000000000000       0.0000000000000    
  12.400000000000       0.0000000000000    
  12.800000000000       2.5197609899469    
  13.200000000000       0.0000000000000    
  13.600000000000       0.0000000000000    
  14.000000000000       0.0000000000000    
  14.400000000000       0.0000000000000    
  14.800000000000       0.0000000000000    
  15.200000000000       0.0000000000000    
  15.600000000000       0.0000000000000    
  16.000000000000       0.0000000000000    
  16.400000000000       0.0000000000000    
  16.800000000000       0.0000000000000    
  17.200000000000       2.4928467663307    
  17.600000000000       0.0000000000000    
  18.000000000000       2.4824109280555    
  18.400000000000       7.5558533317788    
  18.800000000000       4.9958510837289    
  19.200000000000       2.5168143550340    
  19.600000000000       10.067558271090    
  20.000000000000       7.5128158642400    
ZONE T= "Xw:     39.9300      Yw:     22.3100      Rw:    0.100000      Zwbot:     10.5000      Zwtop:     11.0000       Specie:  1 "
 0.40000000000000       0.0000000000000    
 0.80000000000000       0.0000000000000    
  1.2000000000000       0.0000000000000    
  1.6000000000000       0.0000000000000    
  2.0000000000000       0.0000000000000    
  2.4000000000000       0.0000000000000    
  2.8000000000000       0.0000000000000    
  3.2000000000000       0.0000000000000    
  3.6000000000000       0.0000000000000    
  4.0000000000000       0.0000000000000    
  4.4000000000000       2.4875108248672    
  4.8000000000000       0.0000000000000    
  5.2000000000000       0.0000000000000    
  5.6000000000000       7.4874288657734    
  6.0000000000000       27.411764817669    
  6.4000000000000       27.541810575326    
  6.8000000000000       2.5135985594896    
  7.2000000000000       19.907608567862    
  7.6000000000000       34.960638690107    
  8.0000000000000       17.500056761822    
  8.4000000000000       34.967553739690    
  8.8000000000000       30.069983741224    
  9.2000000000000       32.570400672718    
  9.6000000000000       37.511626301390    
  10.000000000000       52.524434062039    
  10.400000000000       32.602712003274    
  10.800000000000       27.609185550414    
  11.200000000000       27.617262442492    
  11.600000000000       17.567369984693    
  12.000000000000       35.068782368168    
  12.400000000000       32.522366123456    
  12.800000000000       25.013531983670    
  13.200000000000       22.436136486739    
  13.600000000000       40.007845379880    
  14.000000000000       17.468525754777    
  14.400000000000       17.512752009631    
  14.800000000000       17.435237987862    
  15.200000000000       12.468698665625    
  15.600000000000       7.4172871944531    
  16.000000000000       7.4357936831294    
  16.400000000000       0.0000000000000    
  16.800000000000       12.602080928020    
  17.200000000000       7.5186675030762    
  17.600000000000       17.458616913642    
  18.000000000000       9.9832992632821    
  18.400000000000       7.4616636574853    
  18.800000000000       0.0000000000000    
  19.200000000000       0.0000000000000    
  19.600000000000       0.0000000000000    
  20.000000000000       0.0000000000000    
ZONE T= "Xw:     40.0300      Yw:     22.4100      Rw:    0.100000      Zwbot:     7.60000      Zwtop:     8.10000       Specie:  1 "
 0.40000000000000       0.0000000000000    
 0.80000000000000       0.0000000000000    
  1.2000000000000       0.0000000000000    
  1.6000000000000       0.0000000000000    
  2.0000000000000       0.0000000000000    
  2.4000000000000       0.0000000000000    
  2.8000000000000       0.0000000000000    
  3.2000000000000       0.0000000000000    
  3.6000000000000       0.0000000000000    
  4.0000000000000       0.0000000000000    
  4.4000000000000       0.0000000000000    
  4.8000000000000       4.9727696907293    
  5.2000000000000       7.4435795261410    
  5.6000000000000       7.4752096212121    
  6.0000000000000       0.0000000000000    
  6.4000000000000       7.5414708930369    
  6.8000000000000       17.459935343017    
  7.2000000000000       4.9925473515896    
  7.6000000000000       17.474952869483    
  8.0000000000000       25.044836487118    
  8.4000000000000       15.002099477709    
  8.8000000000000       47.533620974268    
  9.2000000000000       40.020422828039    
  9.6000000000000       44.994588499983    
  10.000000000000       39.989437642572    
  10.400000000000       44.899064251431    
  10.800000000000       34.946041729693    
  11.200000000000       22.457338875258    
  11.600000000000       22.532542720956    
  12.000000000000       47.614337543030    
  12.400000000000       37.684238279095    
  12.800000000000       32.656693845312    
  13.200000000000       24.992398745022    
  13.600000000000       40.019799768265    
  14.000000000000       39.999040007776    
  14.400000000000       12.563347670647    
  14.800000000000       27.484632669656    
  15.200000000000       30.110800707053    
  15.600000000000       22.482679883754    
  16.000000000000       32.539110608184    
  16.400000000000       0.0000000000000    
  16.800000000000       22.553851305812    
  17.200000000000       2.5055948643406    
  17.600000000000       20.069107353692    
  18.000000000000       7.5096434685441    
  18.400000000000       5.0289861574000    
  18.800000000000       5.0080650640546    
  19.200000000000       9.9607832651410    
  19.600000000000       2.5241243554872    
  20.000000000000       0.0000000000000    
ZONE T= "Xw:     39.9300      Yw:     22.4100      Rw:    0.100000      Zwbot:     4.50000      Zwtop:     5.00000       Specie:  1 "
 0.40000000000000       0.0000000000000    
 0.80000000000000       0.0000000000000    
  1.2000000000000       0.0000000000000    
  1.6000000000000       0.0000000000000    
  2.0000000000000       0.0000000000000    
  2.4000000000000       0.0000000000000    
  2.8000000000000       0.0000000000000    
  3.2000000000000       0.0000000000000    
  3.6000000000000       0.0000000000000    
  4.0000000000000       0.0000000000000    
  4.4000000000000       2.5067497249883    
  4.8000000000000       2.4824109280555    
  5.2000000000000       2.5067497249883    
  5.6000000000000       5.0018675350410    
  6.0000000000000       10.059304302583    
  6.4000000000000       7.5196712339278    
  6.8000000000000       10.007457093542    
  7.2000000000000       35.146912337212    
  7.6000000000000       20.053004711586    
  8.0000000000000       62.639542312516    
  8.4000000000000       25.063966212079    
  8.8000000000000       40.191667075897    
  9.2000000000000       37.584881503169    
  9.6000000000000       25.175079806263    
  10.000000000000       35.090492239206    
  10.400000000000       32.374638430152    
  10.800000000000       30.041493446939    
  11.200000000000       32.455420143470    
  11.600000000000       17.508966325736    
  12.000000000000       12.418766534968    
  12.400000000000       22.455365570482    
  12.800000000000       39.952508324989    
  13.200000000000       30.038646286580    
  13.600000000000       14.963879307300    
  14.000000000000       15.000520269780    
  14.400000000000       15.013727098554    
  14.800000000000       22.499915272853    
  15.200000000000       7.5596682932852    
  15.600000000000       0.0000000000000    
  16.000000000000       0.0000000000000    
  16.400000000000       0.0000000000000    
  16.800000000000       0.0000000000000    
  17.200000000000       0.0000000000000    
  17.600000000000       2.4875515003983    
  18.000000000000       2.4862387208465    
  18.400000000000       4.9764247374414    
  18.800000000000       12.435468499079    
  19.200000000000       7.4549169021172    
  19.600000000000       2.4843390906354    
  20.000000000000       0.0000000000000    
ZONE T= "Xw:     39.8300      Yw:     28.4100      Rw:    0.100000      Zwbot:     16.5000      Zwtop:     17.0000       Specie:  1 "
 0.40000000000000       0.0000000000000    
 0.80000000000000       0.0000000000000    
  1.2000000000000       0.0000000000000    
  1.6000000000000       0.0000000000000    
  2.0000000000000       0.0000000000000    
  2.4000000000000       0.0000000000000    
  2.8000000000000       0.0000000000000    
  3.2000000000000       0.0000000000000    
  3.6000000000000       4.9837334876140    
  4.0000000000000       0.0000000000000    
  4.4000000000000       2.4963171863893    
  4.8000000000000       10.146648218779    
  5.2000000000000       2.5385863570451    
  5.6000000000000       10.061994190584    
  6.0000000000000       10.138951009378    
  6.4000000000000       10.060407728820    
  6.8000000000000       2.4615517450090    
  7.2000000000000       4.9231034900180    
  7.6000000000000       7.4599876984152    
  8.0000000000000       7.4504422297367    
  8.4000000000000       7.4773947748321    
  8.8000000000000       4.9888904847277    
  9.2000000000000       10.033466151361    
  9.6000000000000       15.031655289508    
  10.000000000000       12.478167164079    
  10.400000000000       7.4592878855555    
  10.800000000000       0.0000000000000    
  11.200000000000       9.9789373347412    
  11.600000000000       7.4005145835454    
  12.000000000000       14.861810165221    
  12.400000000000       9.9430194785260    
  12.800000000000       0.0000000000000    
  13.200000000000       12.434060578467    
  13.600000000000       15.028048276134    
  14.000000000000       5.0365843204407    
  14.400000000000       10.026972241903    
  14.800000000000       10.098009628160    
  15.200000000000       20.093523524202    
  15.600000000000       2.4800434180493    
  16.000000000000       24.846098882428    
  16.400000000000       19.790611158412    
  16.800000000000       10.012825409581    
  17.200000000000       2.5259142877770    
  17.600000000000       7.5526113712654    
  18.000000000000       15.192389635154    
  18.400000000000       9.9682037339141    
  18.800000000000       5.0066159066889    
  19.200000000000       12.541076134750    
  19.600000000000       7.5128395141269    
  20.000000000000       9.9917207188813    
ZONE T= "Xw:     39.9300      Yw:     28.4100      Rw:    0.100000      Zwbot:     13.5000      Zwtop:     14.0000       Specie:  1 "
 0.40000000000000       0.0000000000000    
 0.80000000000000       0.0000000000000    
  1.2000000000000       0.0000000000000    
  1.6000000000000       0.0000000000000    
  2.0000000000000       0.0000000000000    
  2.4000000000000       0.0000000000000    
  2.8000000000000       0.0000000000000    
  3.2000000000000       0.0000000000000    
  3.6000000000000       0.0000000000000    
  4.0000000000000       0.0000000000000    
  4.4000000000000       0.0000000000000    
  4.8000000000000       0.0000000000000    
  5.2000000000000       0.0000000000000    
  5.6000000000000       0.0000000000000    
  6.0000000000000       0.0000000000000    
  6.4000000000000       0.0000000000000    
  6.8000000000000       0.0000000000000    
  7.2000000000000       0.0000000000000    
  7.6000000000000       0.0000000000000    
  8.0000000000000       0.0000000000000    
  8.4000000000000       2.5458896012705    
  8.8000000000000       0.0000000000000    
  9.2000000000000       2.4787788785324    
  9.6000000000000       0.0000000000000    
  10.000000000000       0.0000000000000    
  10.400000000000       0.0000000000000    
  10.800000000000       0.0000000000000    
  11.200000000000       2.4787788785324    
  11.600000000000       0.0000000000000    
  12.000000000000       2.4965682101338    
  12.400000000000       10.005100237935    
  12.800000000000       4.9931364202675    
  13.200000000000       0.0000000000000    
  13.600000000000       2.4965682101338    
  14.000000000000       0.0000000000000    
  14.400000000000       0.0000000000000    
  14.800000000000       0.0000000000000    
  15.200000000000       0.0000000000000    
  15.600000000000       2.5153956075338    
  16.000000000000       5.0146302791280    
  16.400000000000       2.5187099388229    
  16.800000000000       7.5171792820112    
  17.200000000000       14.895639730604    
  17.600000000000       7.4314645719730    
  18.000000000000       4.9984693431883    
  18.400000000000       2.4992346715942    
  18.800000000000       17.628146225318    
  19.200000000000       10.039587421544    
  19.600000000000       17.579889917842    
  20.000000000000       2.4628061203320    
ZONE T= "Xw:     39.8300      Yw:     28.4100      Rw:    0.100000      Zwbot:     10.6000      Zwtop:     11.2000       Specie:  1 "
 0.40000000000000       0.0000000000000    
 0.80000000000000       0.0000000000000    
  1.2000000000000       0.0000000000000    
  1.6000000000000       0.0000000000000    
  2.0000000000000       0.0000000000000    
  2.4000000000000       4.9493941534594    
  2.8000000000000       17.462397416246    
  3.2000000000000       4.9304776272562    
  3.6000000000000       4.9304776272562    
  4.0000000000000       12.467309481068    
  4.4000000000000       12.508556548381    
  4.8000000000000       12.532274009446    
  5.2000000000000       35.045953532426    
  5.6000000000000       25.119508257873    
  6.0000000000000       29.882431475856    
  6.4000000000000       19.889092493941    
  6.8000000000000       15.005190612757    
  7.2000000000000       14.916656143941    
  7.6000000000000       32.671121555611    
  8.0000000000000       15.006717878849    
  8.4000000000000       39.915401386827    
  8.8000000000000       32.422548088822    
  9.2000000000000       37.344939476993    
  9.6000000000000       50.066146508966    
  10.000000000000       27.406076474924    
  10.400000000000       45.013083464343    
  10.800000000000       35.091237967814    
  11.200000000000       29.868229429903    
  11.600000000000       52.355293018410    
  12.000000000000       17.526961179682    
  12.400000000000       42.534214125000    
  12.800000000000       22.424791386265    
  13.200000000000       22.608841845533    
  13.600000000000       27.553685937627    
  14.000000000000       32.591608792599    
  14.400000000000       35.090338165273    
  14.800000000000       22.525623198093    
  15.200000000000       20.119443824133    
  15.600000000000       4.9844098995140    
  16.000000000000       17.582630225978    
  16.400000000000       20.000478002759    
  16.800000000000       10.099186057231    
  17.200000000000       7.5628705549703    
  17.600000000000       20.032031973765    
  18.000000000000       0.0000000000000    
  18.400000000000       0.0000000000000    
  18.800000000000       7.5705545495937    
  19.200000000000       5.0319399532791    
  19.600000000000       7.4849726846164    
  20.000000000000       0.0000000000000    
ZONE T= "Xw:     39.8300      Yw:     28.4100      Rw:    0.100000      Zwbot:     7.60000      Zwtop:     8.30000       Specie:  1 "
 0.40000000000000       0.0000000000000    
 0.80000000000000       0.0000000000000    
  1.2000000000000       0.0000000000000    
  1.6000000000000       0.0000000000000    
  2.0000000000000       0.0000000000000    
  2.4000000000000       0.0000000000000    
  2.8000000000000       0.0000000000000    
  3.2000000000000       5.0415163959435    
  3.6000000000000       5.0268589252578    
  4.0000000000000       10.027493905592    
  4.4000000000000       2.5232464866453    
  4.8000000000000       4.9840010041670    
  5.2000000000000       4.9641938390035    
  5.6000000000000       0.0000000000000    
  6.0000000000000       7.4463565747482    
  6.4000000000000       17.436924786953    
  6.8000000000000       9.9918881391649    
  7.2000000000000       12.525777313870    
  7.6000000000000       20.095237615414    
  8.0000000000000       12.521359962966    
  8.4000000000000       7.6096279769519    
  8.8000000000000       15.013177777642    
  9.2000000000000       4.9898624498572    
  9.6000000000000       27.459773390306    
  10.000000000000       22.533700504173    
  10.400000000000       32.569598458529    
  10.800000000000       35.023758448288    
  11.200000000000       37.431328460132    
  11.600000000000       19.978506346937    
  12.000000000000       9.8968467775723    
  12.400000000000       24.973626642259    
  12.800000000000       22.536179607065    
  13.200000000000       37.404261807563    
  13.600000000000       27.416368645059    
  14.000000000000       20.044725838903    
  14.400000000000       27.597748617367    
  14.800000000000       44.867727229388    
  15.200000000000       37.483810571691    
  15.600000000000       37.579883778145    
  16.000000000000       20.073105278383    
  16.400000000000       20.077860606917    
  16.800000000000       32.560327613459    
  17.200000000000       39.926815139231    
  17.600000000000       25.047293738272    
  18.000000000000       7.4860557661880    
  18.400000000000       22.486733346697    
  18.800000000000       15.011407728076    
  19.200000000000       25.069135413856    
  19.600000000000       20.005499729107    
  20.000000000000       15.125881025549    
ZONE T= "Xw:     39.8300      Yw:     28.5100      Rw:    0.100000      Zwbot:     4.50000      Zwtop:     5.00000       Specie:  1 "
 0.40000000000000       7.6059862659711    
 0.80000000000000       2.5368842083972    
  1.2000000000000       9.9759352401233    
  1.6000000000000       9.9462393109659    
  2.0000000000000       14.854774250449    
  2.4000000000000       22.454321365620    
  2.8000000000000       9.9279203282736    
  3.2000000000000       27.566184910653    
  3.6000000000000       19.961290965607    
  4.0000000000000       19.968162580471    
  4.4000000000000       42.455868743770    
  4.8000000000000       50.247205215157    
  5.2000000000000       35.111476510003    
  5.6000000000000       44.961144470707    
  6.0000000000000       15.048090305027    
  6.4000000000000       22.455600990817    
  6.8000000000000       42.654114551162    
  7.2000000000000       37.736659097472    
  7.6000000000000       52.549678688229    
  8.0000000000000       57.544143553064    
  8.4000000000000       37.708407320566    
  8.8000000000000       60.155049621863    
  9.2000000000000       30.130792111277    
  9.6000000000000       60.303247041129    
  10.000000000000       30.121436347154    
  10.400000000000       32.648882996663    
  10.800000000000       12.634158948419    
  11.200000000000       25.104609111441    
  11.600000000000       30.092001744203    
  12.000000000000       19.937183314566    
  12.400000000000       12.505553432518    
  12.800000000000       0.0000000000000    
  13.200000000000       0.0000000000000    
  13.600000000000       5.0180524861448    
  14.000000000000       0.0000000000000    
  14.400000000000       5.0333041681625    
  14.800000000000       0.0000000000000    
  15.200000000000       7.5293023255814    
  15.600000000000       12.563148354192    
  16.000000000000       7.5530528579749    
  16.400000000000       7.5219700652720    
  16.800000000000       5.0089344142965    
  17.200000000000       7.4524660194937    
  17.600000000000       0.0000000000000    
  18.000000000000       0.0000000000000    
  18.400000000000       0.0000000000000    
  18.800000000000       0.0000000000000    
  19.200000000000       0.0000000000000    
  19.600000000000       0.0000000000000    
  20.000000000000       0.0000000000000    
ZONE T= "Xw:     39.5300      Yw:     34.0100      Rw:    0.100000      Zwbot:     16.7000      Zwtop:     17.3000       Specie:  1 "
 0.40000000000000       0.0000000000000    
 0.80000000000000       5.0449741711204    
  1.2000000000000       2.5048173540483    
  1.6000000000000       0.0000000000000    
  2.0000000000000       0.0000000000000    
  2.4000000000000       2.4775033934447    
  2.8000000000000       0.0000000000000    
  3.2000000000000       0.0000000000000    
  3.6000000000000       7.4974142320266    
  4.0000000000000       10.026813625274    
  4.4000000000000       14.948550573148    
  4.8000000000000       5.0051301442303    
  5.2000000000000       5.0552535015712    
  5.6000000000000       12.571180707286    
  6.0000000000000       17.482232615136    
  6.4000000000000       20.030821591257    
  6.8000000000000       12.409093974053    
  7.2000000000000       12.506169949506    
  7.6000000000000       32.480552387367    
  8.0000000000000       27.593085977959    
  8.4000000000000       7.5047077765083    
  8.8000000000000       30.035686119599    
  9.2000000000000       29.934511997962    
  9.6000000000000       42.536378822243    
  10.000000000000       27.452570626127    
  10.400000000000       34.925200333865    
  10.800000000000       20.050232074313    
  11.200000000000       14.978162683081    
  11.600000000000       30.106484965836    
  12.000000000000       32.537007515993    
  12.400000000000       22.475372669629    
  12.800000000000       7.5238203537918    
  13.200000000000       17.578738310645    
  13.600000000000       27.629518873383    
  14.000000000000       44.868603273581    
  14.400000000000       32.480183042035    
  14.800000000000       32.471161276602    
  15.200000000000       22.543152841082    
  15.600000000000       12.494930955724    
  16.000000000000       27.443373347879    
  16.400000000000       20.113062704615    
  16.800000000000       12.448427933543    
  17.200000000000       12.475023589624    
  17.600000000000       20.062717548956    
  18.000000000000       17.530055311790    
  18.400000000000       20.069269177746    
  18.800000000000       20.025676829491    
  19.200000000000       17.505679981131    
  19.600000000000       17.497367473801    
  20.000000000000       9.9321590693397    
ZONE T= "Xw:     39.5300      Yw:     34.1100      Rw:    0.100000      Zwbot:     13.5000      Zwtop:     14.0000       Specie:  1 "
 0.40000000000000       0.0000000000000    
 0.80000000000000       0.0000000000000    
  1.2000000000000       0.0000000000000    
  1.6000000000000       0.0000000000000    
  2.0000000000000       0.0000000000000    
  2.4000000000000       0.0000000000000    
  2.8000000000000       0.0000000000000    
  3.2000000000000       0.0000000000000    
  3.6000000000000       0.0000000000000    
  4.0000000000000       0.0000000000000    
  4.4000000000000       0.0000000000000    
  4.8000000000000       0.0000000000000    
  5.2000000000000       0.0000000000000    
  5.6000000000000       2.4943433734400    
  6.0000000000000       0.0000000000000    
  6.4000000000000       4.9775029287344    
  6.8000000000000       12.544953490172    
  7.2000000000000       5.0212682246222    
  7.6000000000000       12.520962321695    
  8.0000000000000       12.464246744059    
  8.4000000000000       17.531365034216    
  8.8000000000000       9.9886236143071    
  9.2000000000000       9.9737977307469    
  9.6000000000000       17.420573742162    
  10.000000000000       19.996515359983    
  10.400000000000       10.003512544460    
  10.800000000000       7.4681287639888    
  11.200000000000       14.917635631371    
  11.600000000000       22.449851975353    
  12.000000000000       4.9996306425111    
  12.400000000000       22.500510286458    
  12.800000000000       20.117237730439    
  13.200000000000       12.539233152203    
  13.600000000000       14.953887837757    
  14.000000000000       9.9968303630989    
  14.400000000000       22.465069879709    
  14.800000000000       37.678105108385    
  15.200000000000       17.542917496853    
  15.600000000000       15.086776893832    
  16.000000000000       24.954857932095    
  16.400000000000       10.019545974377    
  16.800000000000       22.495353450283    
  17.200000000000       5.0145670032473    
  17.600000000000       5.0508783584212    
  18.000000000000       22.632010503841    
  18.400000000000       15.033227424007    
  18.800000000000       20.107296655764    
  19.200000000000       27.440681417559    
  19.600000000000       5.0097037614323    
  20.000000000000       5.0108906284772    
ZONE T= "Xw:     39.4300      Yw:     34.0100      Rw:    0.100000      Zwbot:     10.5000      Zwtop:     11.1000       Specie:  1 "
 0.40000000000000       14.949872210062    
 0.80000000000000       7.4653114470954    
  1.2000000000000       15.089514787465    
  1.6000000000000       17.532280408350    
  2.0000000000000       10.045220887675    
  2.4000000000000       19.934508251430    
  2.8000000000000       19.923686243942    
  3.2000000000000       24.913069972359    
  3.6000000000000       37.449584531283    
  4.0000000000000       32.607869968642    
  4.4000000000000       10.049636074163    
  4.8000000000000       30.052976050269    
  5.2000000000000       22.599719739568    
  5.6000000000000       42.568396667291    
  6.0000000000000       35.054338908509    
  6.4000000000000       39.941236878162    
  6.8000000000000       24.960306530551    
  7.2000000000000       32.414217942247    
  7.6000000000000       45.077126086397    
  8.0000000000000       32.532003065273    
  8.4000000000000       42.542557462607    
  8.8000000000000       32.438952874498    
  9.2000000000000       40.088481490874    
  9.6000000000000       39.820462414838    
  10.000000000000       29.869745451452    