 TITLE="TECPLOT input file: Breakthrough Curves" 
 VARIABLES="Time" "Concentrations" 
ZONE T= "Xw:     39.9300      Yw:     22.4100      Rw:    0.100000      Zwbot:     16.5000      Zwtop:     17.0000       Specie:  1 "
 0.40000000000000       0.0000000000000    
 0.80000000000000       0.0000000000000    
  1.2000000000000       0.0000000000000    
  1.6000000000000       0.0000000000000    
  2.0000000000000       0.0000000000000    
  2.4000000000000       0.0000000000000    
  2.8000000000000       0.0000000000000    
  3.2000000000000       0.0000000000000    
  3.6000000000000       0.0000000000000    
  4.0000000000000       0.0000000000000    
  4.4000000000000       0.0000000000000    
  4.8000000000000       0.0000000000000    
  5.2000000000000       0.0000000000000    
  5.6000000000000       0.0000000000000    
  6.0000000000000       0.0000000000000    
  6.4000000000000       0.0000000000000    
  6.8000000000000       0.0000000000000    
  7.2000000000000       0.0000000000000    
  7.6000000000000       0.0000000000000    
  8.0000000000000       0.0000000000000    
  8.4000000000000       0.0000000000000    
  8.8000000000000       0.0000000000000    
  9.2000000000000       0.0000000000000    
  9.6000000000000       0.0000000000000    
  10.000000000000       0.0000000000000    
  10.400000000000       0.0000000000000    
  10.800000000000       0.0000000000000    
  11.200000000000       0.0000000000000    
  11.600000000000       0.0000000000000    
  12.000000000000       0.0000000000000    
  12.400000000000       0.0000000000000    
  12.800000000000       4.9732648433370    
  13.200000000000       0.0000000000000    
  13.600000000000       2.4866324216685    
  14.000000000000       0.0000000000000    
  14.400000000000       0.0000000000000    
  14.800000000000       0.0000000000000    
  15.200000000000       4.9735197866961    
  15.600000000000       2.5052677129119    
  16.000000000000       0.0000000000000    
  16.400000000000       2.5054854520927    
  16.800000000000       10.021506330009    
  17.200000000000       5.0107531650046    
  17.600000000000       7.4976033258538    
  18.000000000000       2.5054854520927    
  18.400000000000       15.027705576092    
  18.800000000000       12.503014363656    
  19.200000000000       2.5054854520927    
  19.600000000000       12.489721199615    
  20.000000000000       2.4866324216685    
ZONE T= "Xw:     39.9300      Yw:     22.4100      Rw:    0.100000      Zwbot:     13.5000      Zwtop:     14.0000       Specie:  1 "
 0.40000000000000       0.0000000000000    
 0.80000000000000       0.0000000000000    
  1.2000000000000       0.0000000000000    
  1.6000000000000       0.0000000000000    
  2.0000000000000       0.0000000000000    
  2.4000000000000       0.0000000000000    
  2.8000000000000       0.0000000000000    
  3.2000000000000       0.0000000000000    
  3.6000000000000       0.0000000000000    
  4.0000000000000       0.0000000000000    
  4.4000000000000       0.0000000000000    
  4.8000000000000       0.0000000000000    
  5.2000000000000       0.0000000000000    
  5.6000000000000       0.0000000000000    
  6.0000000000000       0.0000000000000    
  6.4000000000000       0.0000000000000    
  6.8000000000000       0.0000000000000    
  7.2000000000000       0.0000000000000    
  7.6000000000000       0.0000000000000    
  8.0000000000000       0.0000000000000    
  8.4000000000000       0.0000000000000    
  8.8000000000000       0.0000000000000    
  9.2000000000000       0.0000000000000    
  9.6000000000000       0.0000000000000    
  10.000000000000       0.0000000000000    
  10.400000000000       0.0000000000000    
  10.800000000000       0.0000000000000    
  11.200000000000       0.0000000000000    
  11.600000000000       7.4532458470209    
  12.000000000000       17.459487977286    
  12.400000000000       2.4844152823403    
  12.800000000000       2.5072756159749    
  13.200000000000       0.0000000000000    
  13.600000000000       2.4964847396419    
  14.000000000000       7.4358753275675    
  14.400000000000       12.428844806851    
  14.800000000000       2.4890244216132    
  15.200000000000       7.4358753275675    
  15.600000000000       0.0000000000000    
  16.000000000000       4.9855091612551    
  16.400000000000       4.9735192334860    
  16.800000000000       12.401416024107    
  17.200000000000       4.9818459263697    
  17.600000000000       9.9582545311040    
  18.000000000000       0.0000000000000    
  18.400000000000       4.9920952525066    
  18.800000000000       7.5121042930386    
  19.200000000000       2.4845510334306    
  19.600000000000       4.9735754550438    
  20.000000000000       4.9811643142415    
ZONE T= "Xw:     39.9300      Yw:     22.3100      Rw:    0.100000      Zwbot:     10.5000      Zwtop:     11.0000       Specie:  1 "
 0.40000000000000       0.0000000000000    
 0.80000000000000       0.0000000000000    
  1.2000000000000       0.0000000000000    
  1.6000000000000       0.0000000000000    
  2.0000000000000       0.0000000000000    
  2.4000000000000       0.0000000000000    
  2.8000000000000       0.0000000000000    
  3.2000000000000       0.0000000000000    
  3.6000000000000       0.0000000000000    
  4.0000000000000       0.0000000000000    
  4.4000000000000       0.0000000000000    
  4.8000000000000       0.0000000000000    
  5.2000000000000       7.5149879172271    
  5.6000000000000       4.9969801832439    
  6.0000000000000       12.478518657059    
  6.4000000000000       7.4672090469278    
  6.8000000000000       14.963987365189    
  7.2000000000000       17.466432415661    
  7.6000000000000       10.009051578611    
  8.0000000000000       14.952528750603    
  8.4000000000000       27.476454513376    
  8.8000000000000       22.493320100445    
  9.2000000000000       25.012020497893    
  9.6000000000000       39.936826768570    
  10.000000000000       35.037419218921    
  10.400000000000       32.484593559317    
  10.800000000000       22.457276731288    
  11.200000000000       32.498983913463    
  11.600000000000       27.310454804033    
  12.000000000000       14.899017933011    
  12.400000000000       37.387130734445    
  12.800000000000       29.902945859324    
  13.200000000000       39.931435885500    
  13.600000000000       12.477105230347    
  14.000000000000       32.465467623573    
  14.400000000000       27.497951503273    
  14.800000000000       45.010304026454    
  15.200000000000       17.558206882045    
  15.600000000000       4.9918275654827    
  16.000000000000       4.9634265161660    
  16.400000000000       4.9634265161660    
  16.800000000000       7.4451397742490    
  17.200000000000       2.4817132580830    
  17.600000000000       2.4817132580830    
  18.000000000000       2.4898481614186    
  18.400000000000       4.9715614195016    
  18.800000000000       0.0000000000000    
  19.200000000000       0.0000000000000    
  19.600000000000       0.0000000000000    
  20.000000000000       0.0000000000000    
ZONE T= "Xw:     40.0300      Yw:     22.4100      Rw:    0.100000      Zwbot:     7.60000      Zwtop:     8.10000       Specie:  1 "
 0.40000000000000       0.0000000000000    
 0.80000000000000       0.0000000000000    
  1.2000000000000       0.0000000000000    
  1.6000000000000       0.0000000000000    
  2.0000000000000       0.0000000000000    
  2.4000000000000       0.0000000000000    
  2.8000000000000       0.0000000000000    
  3.2000000000000       0.0000000000000    
  3.6000000000000       0.0000000000000    
  4.0000000000000       0.0000000000000    
  4.4000000000000       0.0000000000000    
  4.8000000000000       2.4799780295677    
  5.2000000000000       7.4785503719474    
  5.6000000000000       7.5296295255497    
  6.0000000000000       15.096655579212    
  6.4000000000000       24.954261290151    
  6.8000000000000       34.869191352673    
  7.2000000000000       39.912330481320    
  7.6000000000000       35.182003715530    
  8.0000000000000       40.023996188288    
  8.4000000000000       59.826097509801    
  8.8000000000000       47.372531817310    
  9.2000000000000       27.503160010456    
  9.6000000000000       37.502247947058    
  10.000000000000       27.398057761418    
  10.400000000000       27.399975942931    
  10.800000000000       22.543557640784    
  11.200000000000       30.001708803166    
  11.600000000000       55.093392884227    
  12.000000000000       45.006519233037    
  12.400000000000       54.904943891199    
  12.800000000000       37.424198108670    
  13.200000000000       59.799120193993    
  13.600000000000       37.321159780580    
  14.000000000000       25.020967664240    
  14.400000000000       47.509784636612    
  14.800000000000       34.950151532057    
  15.200000000000       29.931093812925    
  15.600000000000       27.426161027452    
  16.000000000000       14.954839401327    
  16.400000000000       22.389481196976    
  16.800000000000       19.939925245605    
  17.200000000000       22.462268838244    
  17.600000000000       29.879723907539    
  18.000000000000       17.393202021448    
  18.400000000000       14.954820650544    
  18.800000000000       4.9986154540443    
  19.200000000000       10.034646669920    
  19.600000000000       5.0391876290703    
  20.000000000000       2.5099944355018    
ZONE T= "Xw:     39.9300      Yw:     22.4100      Rw:    0.100000      Zwbot:     4.50000      Zwtop:     5.00000       Specie:  1 "
 0.40000000000000       0.0000000000000    
 0.80000000000000       0.0000000000000    
  1.2000000000000       0.0000000000000    
  1.6000000000000       0.0000000000000    
  2.0000000000000       0.0000000000000    
  2.4000000000000       0.0000000000000    
  2.8000000000000       0.0000000000000    
  3.2000000000000       2.5137004485636    
  3.6000000000000       0.0000000000000    
  4.0000000000000       5.0274008971271    
  4.4000000000000       10.019659128056    
  4.8000000000000       2.4785577823656    
  5.2000000000000       12.415825162529    
  5.6000000000000       4.9735197866961    
  6.0000000000000       22.401181409831    
  6.4000000000000       12.411051711091    
  6.8000000000000       39.961036686932    
  7.2000000000000       40.023989605819    
  7.6000000000000       42.613559402051    
  8.0000000000000       47.679340961456    
  8.4000000000000       45.267557324575    
  8.8000000000000       42.541593675737    
  9.2000000000000       62.497880763828    
  9.6000000000000       80.020784322510    
  10.000000000000       67.619815688342    
  10.400000000000       49.876795344895    
  10.800000000000       34.864568126882    
  11.200000000000       32.461735508578    
  11.600000000000       22.530485129476    
  12.000000000000       17.532170551959    
  12.400000000000       7.5067431480426    
  12.800000000000       2.5093591997209    
  13.200000000000       12.493410929830    
  13.600000000000       22.425813881303    
  14.000000000000       9.9489948448246    
  14.400000000000       14.941671761654    
  14.800000000000       24.861357938475    
  15.200000000000       24.949958865703    
  15.600000000000       17.538347980624    
  16.000000000000       10.074450669332    
  16.400000000000       7.5335117057577    
  16.800000000000       14.979547481886    
  17.200000000000       5.0024432416151    
  17.600000000000       5.0374836718067    
  18.000000000000       0.0000000000000    
  18.400000000000       0.0000000000000    
  18.800000000000       2.4871733551975    
  19.200000000000       0.0000000000000    
  19.600000000000       0.0000000000000    
  20.000000000000       0.0000000000000    
ZONE T= "Xw:     39.8300      Yw:     28.4100      Rw:    0.100000      Zwbot:     16.5000      Zwtop:     17.0000       Specie:  1 "
 0.40000000000000       0.0000000000000    
 0.80000000000000       0.0000000000000    
  1.2000000000000       0.0000000000000    
  1.6000000000000       0.0000000000000    
  2.0000000000000       0.0000000000000    
  2.4000000000000       0.0000000000000    
  2.8000000000000       0.0000000000000    
  3.2000000000000       0.0000000000000    
  3.6000000000000       0.0000000000000    
  4.0000000000000       0.0000000000000    
  4.4000000000000       0.0000000000000    
  4.8000000000000       0.0000000000000    
  5.2000000000000       0.0000000000000    
  5.6000000000000       0.0000000000000    
  6.0000000000000       0.0000000000000    
  6.4000000000000       0.0000000000000    
  6.8000000000000       0.0000000000000    
  7.2000000000000       2.4772926232653    
  7.6000000000000       2.4905373145957    
  8.0000000000000       4.9517516521210    
  8.4000000000000       12.463002316191    
  8.8000000000000       0.0000000000000    
  9.2000000000000       2.5316405089377    
  9.6000000000000       0.0000000000000    
  10.000000000000       7.5949215268130    
  10.400000000000       7.5723690195684    
  10.800000000000       0.0000000000000    
  11.200000000000       4.9791980035683    
  11.600000000000       12.531974517426    
  12.000000000000       22.372704294578    
  12.400000000000       19.865611420589    
  12.800000000000       14.995017070447    
  13.200000000000       22.526425713859    
  13.600000000000       12.437717883894    
  14.000000000000       12.403458494753    
  14.400000000000       9.9460695503742    
  14.800000000000       29.890488230841    
  15.200000000000       24.799190219830    
  15.600000000000       14.942977674408    
  16.000000000000       19.878907108221    
  16.400000000000       17.379786199328    
  16.800000000000       19.929943745739    
  17.200000000000       17.427393236451    
  17.600000000000       29.999672154419    
  18.000000000000       15.008998686338    
  18.400000000000       14.916172055595    
  18.800000000000       19.864911819054    
  19.200000000000       7.5329155792819    
  19.600000000000       4.9813292863807    
  20.000000000000       12.409597699458    
ZONE T= "Xw:     39.9300      Yw:     28.4100      Rw:    0.100000      Zwbot:     13.5000      Zwtop:     14.0000       Specie:  1 "
 0.40000000000000       0.0000000000000    
 0.80000000000000       0.0000000000000    
  1.2000000000000       0.0000000000000    
  1.6000000000000       0.0000000000000    
  2.0000000000000       0.0000000000000    
  2.4000000000000       0.0000000000000    
  2.8000000000000       0.0000000000000    
  3.2000000000000       0.0000000000000    
  3.6000000000000       0.0000000000000    
  4.0000000000000       0.0000000000000    
  4.4000000000000       0.0000000000000    
  4.8000000000000       0.0000000000000    
  5.2000000000000       0.0000000000000    
  5.6000000000000       0.0000000000000    
  6.0000000000000       0.0000000000000    
  6.4000000000000       0.0000000000000    
  6.8000000000000       0.0000000000000    
  7.2000000000000       2.5313573719957    
  7.6000000000000       0.0000000000000    
  8.0000000000000       2.5313573719957    
  8.4000000000000       2.5313573719957    
  8.8000000000000       0.0000000000000    
  9.2000000000000       0.0000000000000    
  9.6000000000000       0.0000000000000    
  10.000000000000       2.5313573719957    
  10.400000000000       2.5150249562551    
  10.800000000000       2.5313573719957    
  11.200000000000       7.5940721159872    
  11.600000000000       12.607789612757    
  12.000000000000       5.0411772173364    
  12.400000000000       2.5150249562551    
  12.800000000000       0.0000000000000    
  13.200000000000       0.0000000000000    
  13.600000000000       5.0627147439915    
  14.000000000000       0.0000000000000    
  14.400000000000       0.0000000000000    
  14.800000000000       2.5055403017373    
  15.200000000000       7.5166209052118    
  15.600000000000       2.5055403017373    
  16.000000000000       2.5113544467886    
  16.400000000000       0.0000000000000    
  16.800000000000       2.5062323471771    
  17.200000000000       7.5180049960914    
  17.600000000000       5.0110806034745    
  18.000000000000       0.0000000000000    
  18.400000000000       0.0000000000000    
  18.800000000000       2.5095960193732    
  19.200000000000       7.5186970415312    
  19.600000000000       12.537889080278    
  20.000000000000       2.5095960193732    
ZONE T= "Xw:     39.8300      Yw:     28.4100      Rw:    0.100000      Zwbot:     10.6000      Zwtop:     11.2000       Specie:  1 "
 0.40000000000000       0.0000000000000    
 0.80000000000000       0.0000000000000    
  1.2000000000000       0.0000000000000    
  1.6000000000000       0.0000000000000    
  2.0000000000000       2.4985313379607    
  2.4000000000000       9.9941253518429    
  2.8000000000000       7.5061179729049    
  3.2000000000000       0.0000000000000    
  3.6000000000000       12.615572498809    
  4.0000000000000       4.9793560918662    
  4.4000000000000       24.957297791312    
  4.8000000000000       19.976107128471    
  5.2000000000000       45.066089447009    
  5.6000000000000       4.9508999190073    
  6.0000000000000       19.924335100233    
  6.4000000000000       22.422269746345    
  6.8000000000000       22.397536158063    
  7.2000000000000       29.907651989643    
  7.6000000000000       37.580868053342    
  8.0000000000000       20.015742017830    
  8.4000000000000       20.074411289421    
  8.8000000000000       19.995830396497    
  9.2000000000000       29.861565276576    
  9.6000000000000       37.361148174802    
  10.000000000000       29.979914926597    
  10.400000000000       19.967304096307    
  10.800000000000       14.828304496518    
  11.200000000000       14.877524005278    
  11.600000000000       19.963579802538    
  12.000000000000       7.4445065660108    
  12.400000000000       15.019277795577    
  12.800000000000       10.091776119675    
  13.200000000000       12.529123235812    
  13.600000000000       22.514854513017    
  14.000000000000       9.9852952727213    
  14.400000000000       22.571279664789    
  14.800000000000       34.902950190631    
  15.200000000000       27.537535025423    
  15.600000000000       32.597255159200    
  16.000000000000       25.019611073707    
  16.400000000000       24.872436764459    
  16.800000000000       22.521976318904    
  17.200000000000       29.986174866484    
  17.600000000000       7.4570283299516    
  18.000000000000       14.947582055763    
  18.400000000000       2.5307716346924    
  18.800000000000       0.0000000000000    
  19.200000000000       14.953996291362    
  19.600000000000       9.8415120954769    
  20.000000000000       2.4956444851615    
ZONE T= "Xw:     39.8300      Yw:     28.4100      Rw:    0.100000      Zwbot:     7.60000      Zwtop:     8.30000       Specie:  1 "
 0.40000000000000       0.0000000000000    
 0.80000000000000       0.0000000000000    
  1.2000000000000       0.0000000000000    
  1.6000000000000       0.0000000000000    
  2.0000000000000       2.5116997978485    
  2.4000000000000       0.0000000000000    
  2.8000000000000       7.5350993935456    
  3.2000000000000       0.0000000000000    
  3.6000000000000       7.5086262197332    
  4.0000000000000       9.9864147935031    
  4.4000000000000       0.0000000000000    
  4.8000000000000       0.0000000000000    
  5.2000000000000       2.5090880016931    
  5.6000000000000       22.562370346643    
  6.0000000000000       25.119079356684    
  6.4000000000000       29.972342181188    
  6.8000000000000       32.758311591779    
  7.2000000000000       22.426625060933    
  7.6000000000000       14.924761363658    
  8.0000000000000       27.472764321801    
  8.4000000000000       15.007409090416    
  8.8000000000000       42.307395243296    
  9.2000000000000       35.015183520662    
  9.6000000000000       22.470836788276    
  10.000000000000       24.892650465790    
  10.400000000000       37.453864061349    
  10.800000000000       55.080231650424    
  11.200000000000       40.212456182120    
  11.600000000000       45.044596275405    
  12.000000000000       37.346962535094    
  12.400000000000       35.051292067369    
  12.800000000000       52.532222806072    
  13.200000000000       52.513181625569    
  13.600000000000       47.533837762570    
  14.000000000000       27.556776085989    
  14.400000000000       30.151630099426    
  14.800000000000       25.042632273268    
  15.200000000000       45.131332027271    
  15.600000000000       22.499769346365    
  16.000000000000       29.992539161349    
  16.400000000000       17.482334489523    
  16.800000000000       20.187563087122    
  17.200000000000       17.298629932247    
  17.600000000000       12.469803518965    
  18.000000000000       30.109710834991    
  18.400000000000       42.644391528416    
  18.800000000000       10.068375072477    
  19.200000000000       49.867330891987    
  19.600000000000       17.403917346720    
  20.000000000000       7.5354868859605    
ZONE T= "Xw:     39.8300      Yw:     28.5100      Rw:    0.100000      Zwbot:     4.50000      Zwtop:     5.00000       Specie:  1 "
 0.40000000000000       7.4189914800408    
 0.80000000000000       14.913594052866    
  1.2000000000000       12.397700244732    
  1.6000000000000       27.523898649529    
  2.0000000000000       10.005489466688    
  2.4000000000000       37.266846999793    
  2.8000000000000       29.897753671944    
  3.2000000000000       34.926832224842    
  3.6000000000000       55.005717952377    
  4.0000000000000       55.011945800903    
  4.4000000000000       67.441024297884    
  4.8000000000000       85.149448269578    
  5.2000000000000       50.016904654198    
  5.6000000000000       49.932387799481    
  6.0000000000000       52.526702893775    
  6.4000000000000       54.976654700622    
  6.8000000000000       45.000627392870    
  7.2000000000000       50.011043911500    
  7.6000000000000       39.843300977055    
  8.0000000000000       39.988799148682    
  8.4000000000000       37.353244038269    
  8.8000000000000       34.958478447675    
  9.2000000000000       32.446924588099    
  9.6000000000000       29.864124862022    
  10.000000000000       44.928371665292    
  10.400000000000       25.019141387310    
  10.800000000000       49.845014575671    
  11.200000000000       34.822951935357    
  11.600000000000       24.748023000408    
  12.000000000000       27.343138429784    
  12.400000000000       9.9439723133657    
  12.800000000000       24.869659626083    
  13.200000000000       4.9758490537272    
  13.600000000000       5.0237295308178    
  14.000000000000       2.5110073346069    
  14.400000000000       2.5110073346069    
  14.800000000000       5.0220146692138    
  15.200000000000       0.0000000000000    
  15.600000000000       0.0000000000000    
  16.000000000000       0.0000000000000    
  16.400000000000       0.0000000000000    
  16.800000000000       0.0000000000000    
  17.200000000000       0.0000000000000    
  17.600000000000       0.0000000000000    
  18.000000000000       0.0000000000000    
  18.400000000000       0.0000000000000    
  18.800000000000       0.0000000000000    
  19.200000000000       0.0000000000000    
  19.600000000000       0.0000000000000    
  20.000000000000       0.0000000000000    
ZONE T= "Xw:     39.5300      Yw:     34.0100      Rw:    0.100000      Zwbot:     16.7000      Zwtop:     17.3000       Specie:  1 "
 0.40000000000000       10.032467206067    
 0.80000000000000       0.0000000000000    
  1.2000000000000       0.0000000000000    
  1.6000000000000       2.5001516831485    
  2.0000000000000       2.5084856290184    
  2.4000000000000       4.9843840450403    
  2.8000000000000       2.5216927969521    
  3.2000000000000       15.028073005242    
  3.6000000000000       10.018256214677    
  4.0000000000000       20.007623694391    
  4.4000000000000       32.368397043091    
  4.8000000000000       12.469394492280    
  5.2000000000000       9.8984839177168    
  5.6000000000000       12.534587513210    
  6.0000000000000       7.4278184621251    
  6.4000000000000       24.856853453640    
  6.8000000000000       27.350467182500    
  7.2000000000000       19.916563277113    
  7.6000000000000       32.367174388379    
  8.0000000000000       22.350029110983    
  8.4000000000000       34.843650158737    
  8.8000000000000       27.281637883316    
  9.2000000000000       24.856618536776    
  9.6000000000000       34.743673383053    
  10.000000000000       37.386318872083    
  10.400000000000       14.881872476526    
  10.800000000000       25.057851381769    
  11.200000000000       39.951133607990    
  11.600000000000       27.484140824175    
  12.000000000000       12.499048333625    
  12.400000000000       29.896226355460    
  12.800000000000       24.882121806757    
  13.200000000000       19.926317711177    
  13.600000000000       17.422067644149    
  14.000000000000       14.915066470117    
  14.400000000000       17.467081889763    
  14.800000000000       42.529134052527    
  15.200000000000       25.017310070348    
  15.600000000000       12.556420996770    
  16.000000000000       10.050773548181    
  16.400000000000       15.067982867471    
  16.800000000000       22.484683045284    
  17.200000000000       12.530059189617    
  17.600000000000       5.0259138927775    
  18.000000000000       9.9707912536161    
  18.400000000000       19.911255887727    
  18.800000000000       15.064775030700    
  19.200000000000       7.5269951373925    
  19.600000000000       2.5189222457467    
  20.000000000000       0.0000000000000    
ZONE T= "Xw:     39.5300      Yw:     34.1100      Rw:    0.100000      Zwbot:     13.5000      Zwtop:     14.0000       Specie:  1 "
 0.40000000000000       0.0000000000000    
 0.80000000000000       0.0000000000000    
  1.2000000000000       0.0000000000000    
  1.6000000000000       0.0000000000000    
  2.0000000000000       0.0000000000000    
  2.4000000000000       0.0000000000000    
  2.8000000000000       0.0000000000000    
  3.2000000000000       0.0000000000000    
  3.6000000000000       0.0000000000000    
  4.0000000000000       2.4872847950173    
  4.4000000000000       4.9745695900346    
  4.8000000000000       2.4872847950173    
  5.2000000000000       4.9834835405812    
  5.6000000000000       2.4961987455639    
  6.0000000000000       0.0000000000000    
  6.4000000000000       0.0000000000000    
  6.8000000000000       0.0000000000000    
  7.2000000000000       0.0000000000000    
  7.6000000000000       12.502502927435    
  8.0000000000000       9.9215968581684    
  8.4000000000000       12.430478260866    
  8.8000000000000       12.466530883573    
  9.2000000000000       12.498078122620    
  9.6000000000000       2.4995568538869    
  10.000000000000       7.4984076452178    
  10.400000000000       12.513970017261    
  10.800000000000       5.0493519217795    
  11.200000000000       7.4834839604375    
  11.600000000000       22.499507359317    
  12.000000000000       24.872810855756    
  12.400000000000       14.973432984206    
  12.800000000000       17.454956797628    
  13.200000000000       19.926201894159    
  13.600000000000       24.946595526347    
  14.000000000000       9.9911910615077    
  14.400000000000       5.0319751049630    
  14.800000000000       12.541548678671    
  15.200000000000       20.038728479652    
  15.600000000000       27.437396620220    
  16.000000000000       17.516262116018    
  16.400000000000       22.528368003836    
  16.800000000000       24.981180846540    
  17.200000000000       20.052197798633    
  17.600000000000       19.971973041754    
  18.000000000000       19.972171144072    
  18.400000000000       27.459930383196    
  18.800000000000       4.9947240285067    
  19.200000000000       25.037233158118    
  19.600000000000       30.023411312375    
  20.000000000000       5.0132249150437    
ZONE T= "Xw:     39.4300      Yw:     34.0100      Rw:    0.100000      Zwbot:     10.5000      Zwtop:     11.1000       Specie:  1 "
 0.40000000000000       10.003608360772    
 0.80000000000000       5.0459128164811    
  1.2000000000000       30.147759610838    
  1.6000000000000       7.5619065180284    
  2.0000000000000       15.101311092422    
  2.4000000000000       17.606294260333    
  2.8000000000000       22.553441257410    
  3.2000000000000       29.953677995691    
  3.6000000000000       27.489194920946    
  4.0000000000000       17.345860726146    
  4.4000000000000       30.038434884386    
  4.8000000000000       25.009406108630    
  5.2000000000000       22.508551997535    
  5.6000000000000       32.570833129327    
  6.0000000000000       47.676926553531    
  6.4000000000000       57.600511377662    
  6.8000000000000       52.567496469928    
  7.2000000000000       25.093046916281    
  7.6000000000000       57.501489256324    
  8.0000000000000       47.434756814683    
  8.4000000000000       19.975273220822    
  8.8000000000000       15.004995004947    
  9.2000000000000       27.695277510503    
  9.6000000000000       20.085072986736    
  10.000000000000       25.168103024671    