 TITLE="TECPLOT input file: Breakthrough Curves" 
 VARIABLES="Time" "Concentrations" 
ZONE T= "Xw:     39.9300      Yw:     22.4100      Rw:    0.100000      Zwbot:     16.5000      Zwtop:     17.0000       Specie:  1 "
 0.40000000000000       0.0000000000000    
 0.80000000000000       0.0000000000000    
  1.2000000000000       0.0000000000000    
  1.6000000000000       0.0000000000000    
  2.0000000000000       0.0000000000000    
  2.4000000000000       0.0000000000000    
  2.8000000000000       0.0000000000000    
  3.2000000000000       0.0000000000000    
  3.6000000000000       0.0000000000000    
  4.0000000000000       0.0000000000000    
  4.4000000000000       0.0000000000000    
  4.8000000000000       0.0000000000000    
  5.2000000000000       0.0000000000000    
  5.6000000000000       0.0000000000000    
  6.0000000000000       0.0000000000000    
  6.4000000000000       0.0000000000000    
  6.8000000000000       0.0000000000000    
  7.2000000000000       0.0000000000000    
  7.6000000000000       0.0000000000000    
  8.0000000000000       0.0000000000000    
  8.4000000000000       0.0000000000000    
  8.8000000000000       0.0000000000000    
  9.2000000000000       0.0000000000000    
  9.6000000000000       0.0000000000000    
  10.000000000000       0.0000000000000    
  10.400000000000       0.0000000000000    
  10.800000000000       0.0000000000000    
  11.200000000000       0.0000000000000    
  11.600000000000       0.0000000000000    
  12.000000000000       0.0000000000000    
  12.400000000000       0.0000000000000    
  12.800000000000       0.0000000000000    
  13.200000000000       0.0000000000000    
  13.600000000000       0.0000000000000    
  14.000000000000       0.0000000000000    
  14.400000000000       0.0000000000000    
  14.800000000000       0.0000000000000    
  15.200000000000       2.5155183231213    
  15.600000000000       0.0000000000000    
  16.000000000000       5.0310366462425    
  16.400000000000       0.0000000000000    
  16.800000000000       10.062073292485    
  17.200000000000       2.5155183231213    
  17.600000000000       0.0000000000000    
  18.000000000000       0.0000000000000    
  18.400000000000       4.9781819389909    
  18.800000000000       7.4672729084863    
  19.200000000000       4.9781819389909    
  19.600000000000       2.4890909694954    
  20.000000000000       2.4890909694954    
ZONE T= "Xw:     39.9300      Yw:     22.4100      Rw:    0.100000      Zwbot:     13.5000      Zwtop:     14.0000       Specie:  1 "
 0.40000000000000       0.0000000000000    
 0.80000000000000       0.0000000000000    
  1.2000000000000       0.0000000000000    
  1.6000000000000       0.0000000000000    
  2.0000000000000       0.0000000000000    
  2.4000000000000       0.0000000000000    
  2.8000000000000       0.0000000000000    
  3.2000000000000       0.0000000000000    
  3.6000000000000       0.0000000000000    
  4.0000000000000       0.0000000000000    
  4.4000000000000       0.0000000000000    
  4.8000000000000       0.0000000000000    
  5.2000000000000       0.0000000000000    
  5.6000000000000       0.0000000000000    
  6.0000000000000       0.0000000000000    
  6.4000000000000       0.0000000000000    
  6.8000000000000       0.0000000000000    
  7.2000000000000       0.0000000000000    
  7.6000000000000       0.0000000000000    
  8.0000000000000       0.0000000000000    
  8.4000000000000       0.0000000000000    
  8.8000000000000       0.0000000000000    
  9.2000000000000       0.0000000000000    
  9.6000000000000       0.0000000000000    
  10.000000000000       0.0000000000000    
  10.400000000000       0.0000000000000    
  10.800000000000       0.0000000000000    
  11.200000000000       0.0000000000000    
  11.600000000000       0.0000000000000    
  12.000000000000       0.0000000000000    
  12.400000000000       0.0000000000000    
  12.800000000000       0.0000000000000    
  13.200000000000       10.062073292485    
  13.600000000000       4.9995300055569    
  14.000000000000       5.0364505289088    
  14.400000000000       5.0230006924113    
  14.800000000000       12.566848720442    
  15.200000000000       7.5246055716868    
  15.600000000000       5.0310366462425    
  16.000000000000       0.0000000000000    
  16.400000000000       17.617823859074    
  16.800000000000       2.4935689254443    
  17.200000000000       2.4840116824356    
  17.600000000000       4.9713863698222    
  18.000000000000       7.4722279851026    
  18.400000000000       7.5174078873906    
  18.800000000000       7.4848784017184    
  19.200000000000       12.491939359059    
  19.600000000000       7.5109205165036    
  20.000000000000       7.4540264851878    
ZONE T= "Xw:     39.9300      Yw:     22.3100      Rw:    0.100000      Zwbot:     10.5000      Zwtop:     11.0000       Specie:  1 "
 0.40000000000000       0.0000000000000    
 0.80000000000000       0.0000000000000    
  1.2000000000000       0.0000000000000    
  1.6000000000000       0.0000000000000    
  2.0000000000000       0.0000000000000    
  2.4000000000000       0.0000000000000    
  2.8000000000000       0.0000000000000    
  3.2000000000000       0.0000000000000    
  3.6000000000000       0.0000000000000    
  4.0000000000000       5.0171541921467    
  4.4000000000000       2.4892110162271    
  4.8000000000000       4.9883573515785    
  5.2000000000000       7.4681376070836    
  5.6000000000000       9.9930866909268    
  6.0000000000000       7.4661231426172    
  6.4000000000000       17.488781051289    
  6.8000000000000       17.489583754290    
  7.2000000000000       7.4754858411808    
  7.6000000000000       27.559414535406    
  8.0000000000000       19.922568003072    
  8.4000000000000       29.899978563851    
  8.8000000000000       44.937827455454    
  9.2000000000000       24.969757881740    
  9.6000000000000       15.010516153390    
  10.000000000000       40.004684638678    
  10.400000000000       37.425925201356    
  10.800000000000       37.513391913804    
  11.200000000000       72.397049062674    
  11.600000000000       79.866087529982    
  12.000000000000       62.391366013475    
  12.400000000000       25.016303801731    
  12.800000000000       24.985688620281    
  13.200000000000       30.105381854529    
  13.600000000000       27.534076862070    
  14.000000000000       12.471733217929    
  14.400000000000       15.016214144088    
  14.800000000000       19.986235171939    
  15.200000000000       27.424381045248    
  15.600000000000       7.4533820717806    
  16.000000000000       9.9717814388204    
  16.400000000000       2.4929470556200    
  16.800000000000       19.949550243433    
  17.200000000000       7.5155403737880    
  17.600000000000       2.5160121437005    
  18.000000000000       0.0000000000000    
  18.400000000000       0.0000000000000    
  18.800000000000       0.0000000000000    
  19.200000000000       0.0000000000000    
  19.600000000000       10.023289689642    
  20.000000000000       0.0000000000000    
ZONE T= "Xw:     40.0300      Yw:     22.4100      Rw:    0.100000      Zwbot:     7.60000      Zwtop:     8.10000       Specie:  1 "
 0.40000000000000       0.0000000000000    
 0.80000000000000       0.0000000000000    
  1.2000000000000       0.0000000000000    
  1.6000000000000       0.0000000000000    
  2.0000000000000       0.0000000000000    
  2.4000000000000       0.0000000000000    
  2.8000000000000       0.0000000000000    
  3.2000000000000       0.0000000000000    
  3.6000000000000       0.0000000000000    
  4.0000000000000       0.0000000000000    
  4.4000000000000       0.0000000000000    
  4.8000000000000       0.0000000000000    
  5.2000000000000       2.4869974401204    
  5.6000000000000       0.0000000000000    
  6.0000000000000       10.022852609932    
  6.4000000000000       9.9096159660595    
  6.8000000000000       19.904282108287    
  7.2000000000000       24.881240594610    
  7.6000000000000       22.466453365258    
  8.0000000000000       22.512543901849    
  8.4000000000000       32.486229953491    
  8.8000000000000       42.611491388400    
  9.2000000000000       17.518046111098    
  9.6000000000000       22.553172380385    
  10.000000000000       22.471769622154    
  10.400000000000       22.466127430038    
  10.800000000000       57.477011264503    
  11.200000000000       62.775601997479    
  11.600000000000       55.204610827572    
  12.000000000000       65.025331344987    
  12.400000000000       57.386638637771    
  12.800000000000       32.447241489720    
  13.200000000000       34.942651897038    
  13.600000000000       37.452135320645    
  14.000000000000       64.966336176863    
  14.400000000000       34.783060246210    
  14.800000000000       39.920309230017    
  15.200000000000       32.436856836995    
  15.600000000000       22.611150637323    
  16.000000000000       19.937134368604    
  16.400000000000       29.964902490603    
  16.800000000000       14.997814536492    
  17.200000000000       9.9782756015757    
  17.600000000000       10.010279496238    
  18.000000000000       17.519064378866    
  18.400000000000       7.5420479595703    
  18.800000000000       20.035547235010    
  19.200000000000       10.036090557585    
  19.600000000000       22.428840048640    
  20.000000000000       5.0135936388279    
ZONE T= "Xw:     39.9300      Yw:     22.4100      Rw:    0.100000      Zwbot:     4.50000      Zwtop:     5.00000       Specie:  1 "
 0.40000000000000       0.0000000000000    
 0.80000000000000       0.0000000000000    
  1.2000000000000       0.0000000000000    
  1.6000000000000       0.0000000000000    
  2.0000000000000       0.0000000000000    
  2.4000000000000       0.0000000000000    
  2.8000000000000       0.0000000000000    
  3.2000000000000       0.0000000000000    
  3.6000000000000       0.0000000000000    
  4.0000000000000       7.5459562732892    
  4.4000000000000       4.9803819127826    
  4.8000000000000       12.417448142180    
  5.2000000000000       10.078192271010    
  5.6000000000000       20.076127810892    
  6.0000000000000       24.995880635023    
  6.4000000000000       20.092211936165    
  6.8000000000000       17.571636725698    
  7.2000000000000       15.012845096091    
  7.6000000000000       24.976147541527    
  8.0000000000000       17.438845073231    
  8.4000000000000       44.888477815772    
  8.8000000000000       24.927612474027    
  9.2000000000000       32.520759443756    
  9.6000000000000       27.377779395498    
  10.000000000000       37.558065250286    
  10.400000000000       57.678043951607    
  10.800000000000       59.941533652924    
  11.200000000000       29.991837744837    
  11.600000000000       42.538460538583    
  12.000000000000       45.046087307106    
  12.400000000000       19.934911198417    
  12.800000000000       22.455981000378    
  13.200000000000       35.019349404484    
  13.600000000000       17.483413492096    
  14.000000000000       15.065248817370    
  14.400000000000       20.028775307972    
  14.800000000000       22.422061101957    
  15.200000000000       7.4560725280138    
  15.600000000000       5.0190093151081    
  16.000000000000       2.4912254617397    
  16.400000000000       2.5101965955925    
  16.800000000000       7.4943399198361    
  17.200000000000       2.5112411226837    
  17.600000000000       15.060419036102    
  18.000000000000       2.4806520502405    
  18.400000000000       0.0000000000000    
  18.800000000000       0.0000000000000    
  19.200000000000       0.0000000000000    
  19.600000000000       2.5092940633205    
  20.000000000000       0.0000000000000    
ZONE T= "Xw:     39.8300      Yw:     28.4100      Rw:    0.100000      Zwbot:     16.5000      Zwtop:     17.0000       Specie:  1 "
 0.40000000000000       0.0000000000000    
 0.80000000000000       0.0000000000000    
  1.2000000000000       0.0000000000000    
  1.6000000000000       0.0000000000000    
  2.0000000000000       0.0000000000000    
  2.4000000000000       0.0000000000000    
  2.8000000000000       0.0000000000000    
  3.2000000000000       0.0000000000000    
  3.6000000000000       0.0000000000000    
  4.0000000000000       0.0000000000000    
  4.4000000000000       0.0000000000000    
  4.8000000000000       0.0000000000000    
  5.2000000000000       0.0000000000000    
  5.6000000000000       0.0000000000000    
  6.0000000000000       5.0295232476110    
  6.4000000000000       2.5443796528355    
  6.8000000000000       0.0000000000000    
  7.2000000000000       2.5291160389824    
  7.6000000000000       5.0582320779648    
  8.0000000000000       0.0000000000000    
  8.4000000000000       0.0000000000000    
  8.8000000000000       0.0000000000000    
  9.2000000000000       4.9569481872938    
  9.6000000000000       10.086188880444    
  10.000000000000       12.459629521212    
  10.400000000000       12.545648696621    
  10.800000000000       12.422210710834    
  11.200000000000       12.512292601965    
  11.600000000000       22.491812812864    
  12.000000000000       29.697098036988    
  12.400000000000       2.4882047878677    
  12.800000000000       2.4973966130435    
  13.200000000000       17.433401981590    
  13.600000000000       17.483063187190    
  14.000000000000       25.061763519074    
  14.400000000000       29.904577457687    
  14.800000000000       27.466630368910    
  15.200000000000       32.268313166250    
  15.600000000000       24.926034827336    
  16.000000000000       7.4310046043564    
  16.400000000000       7.5417354492699    
  16.800000000000       2.5258079088047    
  17.200000000000       14.844267753261    
  17.600000000000       7.5557529601822    
  18.000000000000       2.4701264845145    
  18.400000000000       7.5286992953486    
  18.800000000000       7.5253638423546    
  19.200000000000       2.4819690602276    
  19.600000000000       17.586085261330    
  20.000000000000       0.0000000000000    
ZONE T= "Xw:     39.9300      Yw:     28.4100      Rw:    0.100000      Zwbot:     13.5000      Zwtop:     14.0000       Specie:  1 "
 0.40000000000000       0.0000000000000    
 0.80000000000000       0.0000000000000    
  1.2000000000000       0.0000000000000    
  1.6000000000000       0.0000000000000    
  2.0000000000000       0.0000000000000    
  2.4000000000000       0.0000000000000    
  2.8000000000000       0.0000000000000    
  3.2000000000000       0.0000000000000    
  3.6000000000000       0.0000000000000    
  4.0000000000000       0.0000000000000    
  4.4000000000000       0.0000000000000    
  4.8000000000000       0.0000000000000    
  5.2000000000000       0.0000000000000    
  5.6000000000000       0.0000000000000    
  6.0000000000000       0.0000000000000    
  6.4000000000000       0.0000000000000    
  6.8000000000000       0.0000000000000    
  7.2000000000000       0.0000000000000    
  7.6000000000000       0.0000000000000    
  8.0000000000000       0.0000000000000    
  8.4000000000000       0.0000000000000    
  8.8000000000000       0.0000000000000    
  9.2000000000000       2.5277667763567    
  9.6000000000000       2.5277667763567    
  10.000000000000       2.5277667763567    
  10.400000000000       0.0000000000000    
  10.800000000000       5.0555335527135    
  11.200000000000       5.0265672735722    
  11.600000000000       2.5132836367861    
  12.000000000000       2.4869607413241    
  12.400000000000       4.9739214826483    
  12.800000000000       15.066118146272    
  13.200000000000       0.0000000000000    
  13.600000000000       10.026811651682    
  14.000000000000       2.5042326883915    
  14.400000000000       9.9823868594313    
  14.800000000000       0.0000000000000    
  15.200000000000       2.4869607413241    
  15.600000000000       7.4608822239724    
  16.000000000000       12.467429480353    
  16.400000000000       5.0333872450696    
  16.800000000000       5.0132207019486    
  17.200000000000       2.4859720112215    
  17.600000000000       4.9882865792111    
  18.000000000000       0.0000000000000    
  18.400000000000       4.9919779481326    
  18.800000000000       0.0000000000000    
  19.200000000000       0.0000000000000    
  19.600000000000       2.4959889740663    
  20.000000000000       0.0000000000000    
ZONE T= "Xw:     39.8300      Yw:     28.4100      Rw:    0.100000      Zwbot:     10.6000      Zwtop:     11.2000       Specie:  1 "
 0.40000000000000       10.004938697547    
 0.80000000000000       2.5012346743867    
  1.2000000000000       0.0000000000000    
  1.6000000000000       7.4733076306464    
  2.0000000000000       7.4615508340102    
  2.4000000000000       2.4814177644825    
  2.8000000000000       4.9822050870976    
  3.2000000000000       14.949143870595    
  3.6000000000000       22.467222158496    
  4.0000000000000       22.639260953157    
  4.4000000000000       40.154150247765    
  4.8000000000000       27.472543872616    
  5.2000000000000       12.523671215190    
  5.6000000000000       22.477768884100    
  6.0000000000000       14.993157101361    
  6.4000000000000       7.4499566725365    
  6.8000000000000       37.318373701536    
  7.2000000000000       30.011067574963    
  7.6000000000000       19.969423227494    
  8.0000000000000       4.9908653947812    
  8.4000000000000       10.019356168779    
  8.8000000000000       7.5022606041739    
  9.2000000000000       12.405753700977    
  9.6000000000000       27.537363994852    
  10.000000000000       39.943062901828    
  10.400000000000       44.777227638359    
  10.800000000000       29.992716697462    
  11.200000000000       32.577742252652    
  11.600000000000       24.896838970399    
  12.000000000000       34.917159701475    
  12.400000000000       35.057398286488    
  12.800000000000       50.220640654557    
  13.200000000000       10.039416956640    
  13.600000000000       42.348141288565    
  14.000000000000       29.958509524331    
  14.400000000000       29.970154646369    
  14.800000000000       35.132901445121    
  15.200000000000       27.361206295214    
  15.600000000000       17.471794053545    
  16.000000000000       29.806950473839    
  16.400000000000       17.466017108402    
  16.800000000000       17.424938062534    
  17.200000000000       14.963799945721    
  17.600000000000       7.5309385195742    
  18.000000000000       12.461371395621    
  18.400000000000       5.0843608479225    
  18.800000000000       10.042242245353    
  19.200000000000       9.9230873041123    
  19.600000000000       7.5000618213913    
  20.000000000000       0.0000000000000    
ZONE T= "Xw:     39.8300      Yw:     28.4100      Rw:    0.100000      Zwbot:     7.60000      Zwtop:     8.30000       Specie:  1 "
 0.40000000000000       0.0000000000000    
 0.80000000000000       0.0000000000000    
  1.2000000000000       0.0000000000000    
  1.6000000000000       2.4796893994540    
  2.0000000000000       4.9620715805265    
  2.4000000000000       2.4796893994540    
  2.8000000000000       0.0000000000000    
  3.2000000000000       2.5075213354069    
  3.6000000000000       12.463205109711    
  4.0000000000000       5.0236713459778    
  4.4000000000000       9.8820894887174    
  4.8000000000000       14.942043277625    
  5.2000000000000       12.461703007064    
  5.6000000000000       20.074416612982    
  6.0000000000000       20.033771145055    
  6.4000000000000       25.064318912079    
  6.8000000000000       17.410202836455    
  7.2000000000000       39.804602061367    
  7.6000000000000       42.510742746554    
  8.0000000000000       22.352015553375    
  8.4000000000000       17.448960196676    
  8.8000000000000       29.963393503130    
  9.2000000000000       52.388150604800    
  9.6000000000000       24.943245330671    
  10.000000000000       64.764084463292    
  10.400000000000       30.009330386075    
  10.800000000000       50.031754659125    
  11.200000000000       47.342301297944    
  11.600000000000       34.985023244360    
  12.000000000000       32.566671349485    
  12.400000000000       45.008466147840    
  12.800000000000       22.362277959062    
  13.200000000000       32.541243525056    
  13.600000000000       32.469022737723    
  14.000000000000       22.517315076048    
  14.400000000000       37.360231267075    
  14.800000000000       27.397386598224    
  15.200000000000       22.640171725088    
  15.600000000000       25.113203641076    
  16.000000000000       24.878359699568    
  16.400000000000       27.338294794384    
  16.800000000000       32.441867860125    
  17.200000000000       32.428564061241    
  17.600000000000       25.016865685474    
  18.000000000000       25.088573342419    
  18.400000000000       20.026029014962    
  18.800000000000       15.064034078308    
  19.200000000000       14.945908411500    
  19.600000000000       9.8685361614644    
  20.000000000000       12.485888308346    
ZONE T= "Xw:     39.8300      Yw:     28.5100      Rw:    0.100000      Zwbot:     4.50000      Zwtop:     5.00000       Specie:  1 "
 0.40000000000000       12.456423223253    
 0.80000000000000       12.407851766023    
  1.2000000000000       7.4570429462878    
  1.6000000000000       32.304490722269    
  2.0000000000000       27.379008811851    
  2.4000000000000       32.484826509321    
  2.8000000000000       39.945502649683    
  3.2000000000000       39.982064107042    
  3.6000000000000       35.148909099443    
  4.0000000000000       37.711769122948    
  4.4000000000000       52.569433005221    
  4.8000000000000       20.078186982259    
  5.2000000000000       65.450965577806    
  5.6000000000000       45.210372817237    
  6.0000000000000       47.640362867099    
  6.4000000000000       52.802911573820    
  6.8000000000000       42.474359483325    
  7.2000000000000       99.805601968415    
  7.6000000000000       54.836308923216    
  8.0000000000000       32.539682847374    
  8.4000000000000       37.590972724044    
  8.8000000000000       17.481853867303    
  9.2000000000000       17.372829367565    
  9.6000000000000       17.500648916845    
  10.000000000000       24.867793035000    
  10.400000000000       9.9745263986089    
  10.800000000000       35.037270970896    
  11.200000000000       27.342501704353    
  11.600000000000       22.592864298954    
  12.000000000000       4.9768677027128    
  12.400000000000       17.492368737627    
  12.800000000000       20.048806058157    
  13.200000000000       7.5107413160366    
  13.600000000000       2.4943884156086    
  14.000000000000       15.083956182562    
  14.400000000000       2.5219644848194    
  14.800000000000       10.046459803549    
  15.200000000000       7.5319810495294    
  15.600000000000       5.0386677436622    
  16.000000000000       7.4732527823328    
  16.400000000000       7.4115319601780    
  16.800000000000       5.0025308339104    
  17.200000000000       0.0000000000000    
  17.600000000000       0.0000000000000    
  18.000000000000       0.0000000000000    
  18.400000000000       0.0000000000000    
  18.800000000000       0.0000000000000    
  19.200000000000       0.0000000000000    
  19.600000000000       0.0000000000000    
  20.000000000000       0.0000000000000    
ZONE T= "Xw:     39.5300      Yw:     34.0100      Rw:    0.100000      Zwbot:     16.7000      Zwtop:     17.3000       Specie:  1 "
 0.40000000000000       0.0000000000000    
 0.80000000000000       0.0000000000000    
  1.2000000000000       4.9562554372086    
  1.6000000000000       2.4781277186043    
  2.0000000000000       7.5448082369212    
  2.4000000000000       7.5079998765518    
  2.8000000000000       4.9448918845673    
  3.2000000000000       4.9562554372086    
  3.6000000000000       10.010981052607    
  4.0000000000000       2.4706089974354    
  4.4000000000000       12.430701912263    
  4.8000000000000       14.939137375115    
  5.2000000000000       32.457200869400    
  5.6000000000000       22.317177174257    
  6.0000000000000       7.4835598277191    
  6.4000000000000       17.494364251048    
  6.8000000000000       22.479317890748    
  7.2000000000000       17.389338247655    
  7.6000000000000       17.434683590041    
  8.0000000000000       14.920812501030    
  8.4000000000000       24.920964679662    
  8.8000000000000       24.821240086277    
  9.2000000000000       24.973948966597    
  9.6000000000000       24.975393521378    
  10.000000000000       17.479179886463    
  10.400000000000       17.526564867179    
  10.800000000000       10.008495023695    
  11.200000000000       25.042727961273    
  11.600000000000       19.993821148532    
  12.000000000000       47.439276941726    
  12.400000000000       37.449124529566    
  12.800000000000       30.168149085173    
  13.200000000000       30.059255356993    
  13.600000000000       15.004819644255    
  14.000000000000       10.000668258160    
  14.400000000000       32.675317692356    
  14.800000000000       25.024851805565    
  15.200000000000       17.533655067809    
  15.600000000000       12.557708966475    
  16.000000000000       17.574830856359    
  16.400000000000       17.593341526980    
  16.800000000000       15.093893216745    
  17.200000000000       12.552488439755    
  17.600000000000       15.014290565920    
  18.000000000000       12.528152177800    
  18.400000000000       15.056940196474    
  18.800000000000       12.544506084935    
  19.200000000000       25.044048743381    
  19.600000000000       17.529347066750    
  20.000000000000       14.937737539259    
ZONE T= "Xw:     39.5300      Yw:     34.1100      Rw:    0.100000      Zwbot:     13.5000      Zwtop:     14.0000       Specie:  1 "
 0.40000000000000       0.0000000000000    
 0.80000000000000       0.0000000000000    
  1.2000000000000       0.0000000000000    
  1.6000000000000       0.0000000000000    
  2.0000000000000       0.0000000000000    
  2.4000000000000       0.0000000000000    
  2.8000000000000       0.0000000000000    
  3.2000000000000       0.0000000000000    
  3.6000000000000       0.0000000000000    
  4.0000000000000       0.0000000000000    
  4.4000000000000       0.0000000000000    
  4.8000000000000       0.0000000000000    
  5.2000000000000       0.0000000000000    
  5.6000000000000       0.0000000000000    
  6.0000000000000       0.0000000000000    
  6.4000000000000       7.5012565040617    
  6.8000000000000       5.0078117093357    
  7.2000000000000       2.5039058546679    
  7.6000000000000       5.0057577123930    
  8.0000000000000       5.0154770734857    
  8.4000000000000       0.0000000000000    
  8.8000000000000       15.009187654554    
  9.2000000000000       12.497604549997    
  9.6000000000000       12.577547613464    
  10.000000000000       2.4891001672952    
  10.400000000000       12.599064104466    
  10.800000000000       30.082605577338    
  11.200000000000       14.961308484687    
  11.600000000000       20.004418170337    
  12.000000000000       12.442339214711    
  12.400000000000       14.986862718211    
  12.800000000000       20.104177546256    
  13.200000000000       17.596198488047    
  13.600000000000       22.627009540043    
  14.000000000000       12.532355213300    
  14.400000000000       29.944993183622    
  14.800000000000       5.0089775224684    
  15.200000000000       10.001396042500    
  15.600000000000       15.038583837288    
  16.000000000000       32.588463147135    
  16.400000000000       19.967406605875    
  16.800000000000       10.026765718848    
  17.200000000000       7.4778600442143    
  17.600000000000       15.087585438666    
  18.000000000000       27.490513778215    
  18.400000000000       27.452659111206    
  18.800000000000       7.4960678754144    
  19.200000000000       12.546097872410    
  19.600000000000       17.512517519555    
  20.000000000000       10.002749045820    
ZONE T= "Xw:     39.4300      Yw:     34.0100      Rw:    0.100000      Zwbot:     10.5000      Zwtop:     11.1000       Specie:  1 "
 0.40000000000000       12.505903585464    
 0.80000000000000       10.045395203241    
  1.2000000000000       25.124928235447    
  1.6000000000000       7.5096618094856    
  2.0000000000000       20.070261466036    
  2.4000000000000       22.514458148886    
  2.8000000000000       30.066452831449    
  3.2000000000000       27.635109561922    
  3.6000000000000       29.967298543991    
  4.0000000000000       35.039723983357    
  4.4000000000000       15.000443824180    
  4.8000000000000       17.476339391267    
  5.2000000000000       40.070948477269    
  5.6000000000000       19.992282214813    
  6.0000000000000       12.490045664786    
  6.4000000000000       14.968996501843    
  6.8000000000000       22.454178811538    
  7.2000000000000       50.104762202292    
  7.6000000000000       72.444153694214    
  8.0000000000000       35.164771024197    
  8.4000000000000       35.014349050206    
  8.8000000000000       17.522826326698    
  9.2000000000000       25.110569499591    
  9.6000000000000       17.441723025022    
  10.000000000000       12.561822471184    