 TITLE="TECPLOT input file: Breakthrough Curves" 
 VARIABLES="Time" "Concentrations" 
ZONE T= "Xw:     39.9300      Yw:     22.4100      Rw:    0.100000      Zwbot:     16.5000      Zwtop:     17.0000       Specie:  1 "
 0.40000000000000       0.0000000000000    
 0.80000000000000       0.0000000000000    
  1.2000000000000       0.0000000000000    
  1.6000000000000       0.0000000000000    
  2.0000000000000       0.0000000000000    
  2.4000000000000       0.0000000000000    
  2.8000000000000       0.0000000000000    
  3.2000000000000       0.0000000000000    
  3.6000000000000       0.0000000000000    
  4.0000000000000       0.0000000000000    
  4.4000000000000       0.0000000000000    
  4.8000000000000       0.0000000000000    
  5.2000000000000       0.0000000000000    
  5.6000000000000       0.0000000000000    
  6.0000000000000       0.0000000000000    
  6.4000000000000       0.0000000000000    
  6.8000000000000       0.0000000000000    
  7.2000000000000       0.0000000000000    
  7.6000000000000       0.0000000000000    
  8.0000000000000       0.0000000000000    
  8.4000000000000       0.0000000000000    
  8.8000000000000       0.0000000000000    
  9.2000000000000       0.0000000000000    
  9.6000000000000       0.0000000000000    
  10.000000000000       0.0000000000000    
  10.400000000000       0.0000000000000    
  10.800000000000       0.0000000000000    
  11.200000000000       0.0000000000000    
  11.600000000000       0.0000000000000    
  12.000000000000       0.0000000000000    
  12.400000000000       0.0000000000000    
  12.800000000000       0.0000000000000    
  13.200000000000       0.0000000000000    
  13.600000000000       0.0000000000000    
  14.000000000000       0.0000000000000    
  14.400000000000       7.4697046613601    
  14.800000000000       0.0000000000000    
  15.200000000000       7.4794886348474    
  15.600000000000       10.009213614228    
  16.000000000000       4.9681159420290    
  16.400000000000       2.5083852144046    
  16.800000000000       0.0000000000000    
  17.200000000000       14.986434463525    
  17.600000000000       9.9675767030541    
  18.000000000000       2.4886719103658    
  18.400000000000       12.549396330021    
  18.800000000000       9.9744009455018    
  19.200000000000       0.0000000000000    
  19.600000000000       9.9814185211078    
  20.000000000000       5.0308055800212    
ZONE T= "Xw:     39.9300      Yw:     22.4100      Rw:    0.100000      Zwbot:     13.5000      Zwtop:     14.0000       Specie:  1 "
 0.40000000000000       0.0000000000000    
 0.80000000000000       0.0000000000000    
  1.2000000000000       0.0000000000000    
  1.6000000000000       0.0000000000000    
  2.0000000000000       0.0000000000000    
  2.4000000000000       0.0000000000000    
  2.8000000000000       0.0000000000000    
  3.2000000000000       0.0000000000000    
  3.6000000000000       0.0000000000000    
  4.0000000000000       0.0000000000000    
  4.4000000000000       0.0000000000000    
  4.8000000000000       0.0000000000000    
  5.2000000000000       0.0000000000000    
  5.6000000000000       0.0000000000000    
  6.0000000000000       0.0000000000000    
  6.4000000000000       0.0000000000000    
  6.8000000000000       0.0000000000000    
  7.2000000000000       0.0000000000000    
  7.6000000000000       0.0000000000000    
  8.0000000000000       0.0000000000000    
  8.4000000000000       0.0000000000000    
  8.8000000000000       0.0000000000000    
  9.2000000000000       0.0000000000000    
  9.6000000000000       0.0000000000000    
  10.000000000000       0.0000000000000    
  10.400000000000       0.0000000000000    
  10.800000000000       0.0000000000000    
  11.200000000000       0.0000000000000    
  11.600000000000       0.0000000000000    
  12.000000000000       0.0000000000000    
  12.400000000000       0.0000000000000    
  12.800000000000       0.0000000000000    
  13.200000000000       0.0000000000000    
  13.600000000000       2.5030915307064    
  14.000000000000       0.0000000000000    
  14.400000000000       2.4842728916933    
  14.800000000000       0.0000000000000    
  15.200000000000       0.0000000000000    
  15.600000000000       7.4528186750799    
  16.000000000000       7.4606870880414    
  16.400000000000       17.481534858979    
  16.800000000000       12.479546480641    
  17.200000000000       7.4354102075666    
  17.600000000000       0.0000000000000    
  18.000000000000       9.9613686760147    
  18.400000000000       7.4566919813830    
  18.800000000000       12.438781375979    
  19.200000000000       17.351343277169    
  19.600000000000       7.4873246017743    
  20.000000000000       7.4809471485611    
ZONE T= "Xw:     39.9300      Yw:     22.3100      Rw:    0.100000      Zwbot:     10.5000      Zwtop:     11.0000       Specie:  1 "
 0.40000000000000       0.0000000000000    
 0.80000000000000       0.0000000000000    
  1.2000000000000       0.0000000000000    
  1.6000000000000       0.0000000000000    
  2.0000000000000       0.0000000000000    
  2.4000000000000       0.0000000000000    
  2.8000000000000       0.0000000000000    
  3.2000000000000       0.0000000000000    
  3.6000000000000       0.0000000000000    
  4.0000000000000       2.4981333061917    
  4.4000000000000       0.0000000000000    
  4.8000000000000       7.4995431185547    
  5.2000000000000       2.4883569516545    
  5.6000000000000       9.8802457569326    
  6.0000000000000       17.168883483513    
  6.4000000000000       7.4875180523201    
  6.8000000000000       22.414548796680    
  7.2000000000000       7.4902723640726    
  7.6000000000000       32.460174245719    
  8.0000000000000       37.382013443628    
  8.4000000000000       49.943653623346    
  8.8000000000000       27.401982248232    
  9.2000000000000       24.954659199917    
  9.6000000000000       50.118027679422    
  10.000000000000       34.960658717749    
  10.400000000000       47.515579423075    
  10.800000000000       32.528567763316    
  11.200000000000       27.551390286331    
  11.600000000000       35.104367759919    
  12.000000000000       40.110532774755    
  12.400000000000       34.997282042411    
  12.800000000000       32.370597648371    
  13.200000000000       12.445058445254    
  13.600000000000       12.398707192087    
  14.000000000000       32.334304458482    
  14.400000000000       24.881026039418    
  14.800000000000       24.936985660918    
  15.200000000000       12.470484000968    
  15.600000000000       4.9947037133862    
  16.000000000000       20.027595732025    
  16.400000000000       7.4776929216865    
  16.800000000000       7.4474819866715    
  17.200000000000       7.4675255101186    
  17.600000000000       9.9854832644918    
  18.000000000000       10.015472951977    
  18.400000000000       7.4948781547263    
  18.800000000000       4.9848444497725    
  19.200000000000       7.5002904106703    
  19.600000000000       12.547136339598    
  20.000000000000       2.4992861519633    
ZONE T= "Xw:     40.0300      Yw:     22.4100      Rw:    0.100000      Zwbot:     7.60000      Zwtop:     8.10000       Specie:  1 "
 0.40000000000000       0.0000000000000    
 0.80000000000000       0.0000000000000    
  1.2000000000000       0.0000000000000    
  1.6000000000000       0.0000000000000    
  2.0000000000000       0.0000000000000    
  2.4000000000000       0.0000000000000    
  2.8000000000000       0.0000000000000    
  3.2000000000000       0.0000000000000    
  3.6000000000000       0.0000000000000    
  4.0000000000000       0.0000000000000    
  4.4000000000000       2.5090003743673    
  4.8000000000000       0.0000000000000    
  5.2000000000000       7.5244511399587    
  5.6000000000000       7.5312340343318    
  6.0000000000000       9.9899040306526    
  6.4000000000000       27.579219981114    
  6.8000000000000       22.600158187457    
  7.2000000000000       17.526870517704    
  7.6000000000000       30.183418543720    
  8.0000000000000       50.050821471791    
  8.4000000000000       34.969865791724    
  8.8000000000000       45.062827959589    
  9.2000000000000       32.500515409750    
  9.6000000000000       34.952625871908    
  10.000000000000       47.360394725127    
  10.400000000000       50.106126830972    
  10.800000000000       55.117454105781    
  11.200000000000       47.561865208268    
  11.600000000000       24.974201116980    
  12.000000000000       37.545490665506    
  12.400000000000       50.077598016464    
  12.800000000000       52.522619777728    
  13.200000000000       62.567253675025    
  13.600000000000       24.906431421573    
  14.000000000000       15.071383810694    
  14.400000000000       37.535815928723    
  14.800000000000       17.561699333525    
  15.200000000000       35.011241646064    
  15.600000000000       25.088672649047    
  16.000000000000       7.5290823004420    
  16.400000000000       2.5272394104378    
  16.800000000000       2.4926900900521    
  17.200000000000       0.0000000000000    
  17.600000000000       4.9913625619642    
  18.000000000000       7.4960174157364    
  18.400000000000       0.0000000000000    
  18.800000000000       7.5187517555601    
  19.200000000000       2.5203057796203    
  19.600000000000       5.0156602248537    
  20.000000000000       2.5030915307064    
ZONE T= "Xw:     39.9300      Yw:     22.4100      Rw:    0.100000      Zwbot:     4.50000      Zwtop:     5.00000       Specie:  1 "
 0.40000000000000       0.0000000000000    
 0.80000000000000       0.0000000000000    
  1.2000000000000       0.0000000000000    
  1.6000000000000       0.0000000000000    
  2.0000000000000       0.0000000000000    
  2.4000000000000       0.0000000000000    
  2.8000000000000       0.0000000000000    
  3.2000000000000       0.0000000000000    
  3.6000000000000       0.0000000000000    
  4.0000000000000       9.9601885465804    
  4.4000000000000       4.9800942732902    
  4.8000000000000       7.4845112188440    
  5.2000000000000       12.542883888661    
  5.6000000000000       4.9808262082239    
  6.0000000000000       30.066034290690    
  6.4000000000000       29.990975944974    
  6.8000000000000       32.583083097988    
  7.2000000000000       32.605760570245    
  7.6000000000000       20.085597108943    
  8.0000000000000       47.485391196072    
  8.4000000000000       30.007438867310    
  8.8000000000000       45.050924322299    
  9.2000000000000       59.988240669510    
  9.6000000000000       35.067717588239    
  10.000000000000       52.389731962930    
  10.400000000000       40.021869591596    
  10.800000000000       37.519075766445    
  11.200000000000       27.640269580331    
  11.600000000000       44.906261660199    
  12.000000000000       24.977372843595    
  12.400000000000       39.985644281170    
  12.800000000000       17.461232479115    
  13.200000000000       7.4709156856400    
  13.600000000000       14.954826194373    
  14.000000000000       12.508689806738    
  14.400000000000       14.905313270456    
  14.800000000000       7.4373865001049    
  15.200000000000       12.422511969524    
  15.600000000000       9.9715327413667    
  16.000000000000       14.965487645284    
  16.400000000000       4.9980011819853    
  16.800000000000       7.5389978389265    
  17.200000000000       7.5040181555379    
  17.600000000000       4.9800942732902    
  18.000000000000       0.0000000000000    
  18.400000000000       0.0000000000000    
  18.800000000000       0.0000000000000    
  19.200000000000       7.4838600360864    
  19.600000000000       12.482289693951    
  20.000000000000       10.053235156442    
ZONE T= "Xw:     39.8300      Yw:     28.4100      Rw:    0.100000      Zwbot:     16.5000      Zwtop:     17.0000       Specie:  1 "
 0.40000000000000       0.0000000000000    
 0.80000000000000       0.0000000000000    
  1.2000000000000       0.0000000000000    
  1.6000000000000       0.0000000000000    
  2.0000000000000       0.0000000000000    
  2.4000000000000       9.9492878275994    
  2.8000000000000       0.0000000000000    
  3.2000000000000       0.0000000000000    
  3.6000000000000       0.0000000000000    
  4.0000000000000       7.4950639177192    
  4.4000000000000       0.0000000000000    
  4.8000000000000       4.9339991216883    
  5.2000000000000       4.9537311018419    
  5.6000000000000       2.5301157213230    
  6.0000000000000       2.4669995608441    
  6.4000000000000       7.5338601237245    
  6.8000000000000       7.4940661355791    
  7.2000000000000       10.027351964085    
  7.6000000000000       22.622382818250    
  8.0000000000000       5.0400671515317    
  8.4000000000000       5.0400671515317    
  8.8000000000000       0.0000000000000    
  9.2000000000000       17.606590434559    
  9.6000000000000       32.722083551020    
  10.000000000000       15.094580039303    
  10.400000000000       24.942039473683    
  10.800000000000       12.446496250401    
  11.200000000000       34.826509742202    
  11.600000000000       12.382843511216    
  12.000000000000       17.333069296716    
  12.400000000000       9.9713937397198    
  12.800000000000       27.490169388934    
  13.200000000000       34.910383349342    
  13.600000000000       22.461534847119    
  14.000000000000       12.453964673051    
  14.400000000000       17.470277175613    
  14.800000000000       15.072548534141    
  15.200000000000       2.5115279304164    
  15.600000000000       17.536147838375    
  16.000000000000       19.903941864833    
  16.400000000000       5.0049217292079    
  16.800000000000       27.640271223084    
  17.200000000000       22.609793683478    
  17.600000000000       20.008983811654    
  18.000000000000       12.538114230449    
  18.400000000000       5.0194679422042    
  18.800000000000       5.0239304837939    
  19.200000000000       5.0109773650621    
  19.600000000000       17.655405908488    
  20.000000000000       7.5706167781038    
ZONE T= "Xw:     39.9300      Yw:     28.4100      Rw:    0.100000      Zwbot:     13.5000      Zwtop:     14.0000       Specie:  1 "
 0.40000000000000       0.0000000000000    
 0.80000000000000       0.0000000000000    
  1.2000000000000       0.0000000000000    
  1.6000000000000       0.0000000000000    
  2.0000000000000       0.0000000000000    
  2.4000000000000       0.0000000000000    
  2.8000000000000       0.0000000000000    
  3.2000000000000       0.0000000000000    
  3.6000000000000       0.0000000000000    
  4.0000000000000       0.0000000000000    
  4.4000000000000       0.0000000000000    
  4.8000000000000       0.0000000000000    
  5.2000000000000       0.0000000000000    
  5.6000000000000       0.0000000000000    
  6.0000000000000       0.0000000000000    
  6.4000000000000       0.0000000000000    
  6.8000000000000       0.0000000000000    
  7.2000000000000       0.0000000000000    
  7.6000000000000       0.0000000000000    
  8.0000000000000       0.0000000000000    
  8.4000000000000       0.0000000000000    
  8.8000000000000       0.0000000000000    
  9.2000000000000       0.0000000000000    
  9.6000000000000       2.5193779828617    
  10.000000000000       0.0000000000000    
  10.400000000000       0.0000000000000    
  10.800000000000       5.0387559657234    
  11.200000000000       2.5193779828617    
  11.600000000000       0.0000000000000    
  12.000000000000       2.4669780196659    
  12.400000000000       5.0387559657234    
  12.800000000000       0.0000000000000    
  13.200000000000       0.0000000000000    
  13.600000000000       5.0474270217067    
  14.000000000000       2.5237135108533    
  14.400000000000       0.0000000000000    
  14.800000000000       7.6202099194550    
  15.200000000000       0.0000000000000    
  15.600000000000       0.0000000000000    
  16.000000000000       0.0000000000000    
  16.400000000000       0.0000000000000    
  16.800000000000       2.5400699731517    
  17.200000000000       0.0000000000000    
  17.600000000000       2.4781565869243    
  18.000000000000       7.5080407866726    
  18.400000000000       7.5330631133662    
  18.800000000000       22.500126246254    
  19.200000000000       10.023147186971    
  19.600000000000       5.0331096982013    
  20.000000000000       10.054798692384    
ZONE T= "Xw:     39.8300      Yw:     28.4100      Rw:    0.100000      Zwbot:     10.6000      Zwtop:     11.2000       Specie:  1 "
 0.40000000000000       0.0000000000000    
 0.80000000000000       0.0000000000000    
  1.2000000000000       0.0000000000000    
  1.6000000000000       0.0000000000000    
  2.0000000000000       0.0000000000000    
  2.4000000000000       7.5482409875703    
  2.8000000000000       7.5752946398747    
  3.2000000000000       5.0281666022359    
  3.6000000000000       14.877767035792    
  4.0000000000000       12.459026336812    
  4.4000000000000       5.0306543144403    
  4.8000000000000       17.655921737815    
  5.2000000000000       42.449671690161    
  5.6000000000000       15.083714869935    
  6.0000000000000       20.075354082842    
  6.4000000000000       30.046968637658    
  6.8000000000000       19.911013232571    
  7.2000000000000       20.022165094856    
  7.6000000000000       32.472591669135    
  8.0000000000000       44.875679398274    
  8.4000000000000       29.859814913285    
  8.8000000000000       27.351183155005    
  9.2000000000000       17.447654703901    
  9.6000000000000       29.857893376329    
  10.000000000000       30.008211753696    
  10.400000000000       22.525093442615    
  10.800000000000       32.570030178442    
  11.200000000000       37.479121880318    
  11.600000000000       37.642645784465    
  12.000000000000       32.586731504888    
  12.400000000000       15.078480576236    
  12.800000000000       20.156964115924    
  13.200000000000       12.539316425311    
  13.600000000000       27.581499386946    
  14.000000000000       22.611430625258    
  14.400000000000       12.552224234501    
  14.800000000000       7.5689027524257    
  15.200000000000       7.5673732539780    
  15.600000000000       15.030984334222    
  16.000000000000       2.4736286810785    
  16.400000000000       12.629839326538    
  16.800000000000       2.4894329267620    
  17.200000000000       4.9895915730200    
  17.600000000000       4.9737873273365    
  18.000000000000       9.9524749665421    
  18.400000000000       4.9472573621570    
  18.800000000000       0.0000000000000    
  19.200000000000       2.4896821880578    
  19.600000000000       5.0052176043850    
  20.000000000000       0.0000000000000    
ZONE T= "Xw:     39.8300      Yw:     28.4100      Rw:    0.100000      Zwbot:     7.60000      Zwtop:     8.30000       Specie:  1 "
 0.40000000000000       2.4775635618440    
 0.80000000000000       0.0000000000000    
  1.2000000000000       0.0000000000000    
  1.6000000000000       0.0000000000000    
  2.0000000000000       0.0000000000000    
  2.4000000000000       0.0000000000000    
  2.8000000000000       0.0000000000000    
  3.2000000000000       10.132314800889    
  3.6000000000000       2.5167780977386    
  4.0000000000000       7.5433236373377    
  4.4000000000000       10.064085433099    
  4.8000000000000       17.619853627509    
  5.2000000000000       7.5258542561026    
  5.6000000000000       27.507711916021    
  6.0000000000000       27.554415353674    
  6.4000000000000       24.905343154206    
  6.8000000000000       14.972402440914    
  7.2000000000000       22.592231236928    
  7.6000000000000       34.844805677661    
  8.0000000000000       25.112111657828    
  8.4000000000000       40.171528316842    
  8.8000000000000       10.064920372428    
  9.2000000000000       42.448211437979    
  9.6000000000000       42.577128851360    
  10.000000000000       22.516264701381    
  10.400000000000       44.892551715578    
  10.800000000000       40.114263391794    
  11.200000000000       47.487044935673    
  11.600000000000       29.891451779366    
  12.000000000000       32.432308756549    
  12.400000000000       40.158439943124    
  12.800000000000       45.107984670960    
  13.200000000000       32.562383229520    
  13.600000000000       32.737140244444    
  14.000000000000       24.938571482706    
  14.400000000000       45.124743736034    
  14.800000000000       45.164354263123    
  15.200000000000       67.357395861854    
  15.600000000000       50.223970810762    
  16.000000000000       22.456101077437    
  16.400000000000       60.188328568335    
  16.800000000000       25.132292344442    
  17.200000000000       47.494631938527    
  17.600000000000       57.467360158954    
  18.000000000000       30.244325194052    
  18.400000000000       35.008292697726    
  18.800000000000       14.933146172702    
  19.200000000000       20.027154697003    
  19.600000000000       9.9441114206389    
  20.000000000000       5.0508042498427    
ZONE T= "Xw:     39.8300      Yw:     28.5100      Rw:    0.100000      Zwbot:     4.50000      Zwtop:     5.00000       Specie:  1 "
 0.40000000000000       17.267804784662    
 0.80000000000000       17.572330359767    
  1.2000000000000       12.466440389584    
  1.6000000000000       7.4547362748312    
  2.0000000000000       7.4696292725237    
  2.4000000000000       25.025928958559    
  2.8000000000000       32.642552659430    
  3.2000000000000       12.531331844491    
  3.6000000000000       37.442987245949    
  4.0000000000000       20.162124443920    
  4.4000000000000       35.002209357393    
  4.8000000000000       40.164058331869    
  5.2000000000000       52.484293848362    
  5.6000000000000       32.527835386093    
  6.0000000000000       32.484077753162    
  6.4000000000000       29.940152741856    
  6.8000000000000       27.598703958685    
  7.2000000000000       27.650357191198    
  7.6000000000000       32.577526013620    
  8.0000000000000       69.916029007831    
  8.4000000000000       34.997829125338    
  8.8000000000000       25.031852600648    
  9.2000000000000       25.057037754857    
  9.6000000000000       22.526719028578    
  10.000000000000       22.575991780975    
  10.400000000000       22.535128143457    
  10.800000000000       22.661470715772    
  11.200000000000       14.948902685149    
  11.600000000000       7.4667893647022    
  12.000000000000       12.495540373940    
  12.400000000000       19.979287534116    
  12.800000000000       24.950196488458    
  13.200000000000       7.5225321460048    
  13.600000000000       20.060224469954    
  14.000000000000       7.5016293663099    
  14.400000000000       5.0574142055351    
  14.800000000000       2.5003936327030    
  15.200000000000       2.4910341830321    
  15.600000000000       0.0000000000000    
  16.000000000000       0.0000000000000    
  16.400000000000       0.0000000000000    
  16.800000000000       0.0000000000000    
  17.200000000000       0.0000000000000    
  17.600000000000       0.0000000000000    
  18.000000000000       0.0000000000000    
  18.400000000000       0.0000000000000    
  18.800000000000       2.4781565869243    
  19.200000000000       0.0000000000000    
  19.600000000000       7.4344697607728    
  20.000000000000       4.9563131738485    
ZONE T= "Xw:     39.5300      Yw:     34.0100      Rw:    0.100000      Zwbot:     16.7000      Zwtop:     17.3000       Specie:  1 "
 0.40000000000000       24.941939688959    
 0.80000000000000       0.0000000000000    
  1.2000000000000       5.0259985592843    
  1.6000000000000       2.5129992796422    
  2.0000000000000       0.0000000000000    
  2.4000000000000       2.5072157213727    
  2.8000000000000       2.4841167293942    
  3.2000000000000       4.9663223154946    
  3.6000000000000       2.4800748474457    
  4.0000000000000       0.0000000000000    
  4.4000000000000       20.003696228179    
  4.8000000000000       27.534529463319    
  5.2000000000000       35.142904916621    
  5.6000000000000       30.182585232911    
  6.0000000000000       37.508044608782    
  6.4000000000000       12.584310326843    
  6.8000000000000       17.531328790787    
  7.2000000000000       37.453471528588    
  7.6000000000000       20.118029580081    
  8.0000000000000       15.001385036541    
  8.4000000000000       7.5216689756825    
  8.8000000000000       22.503165509402    
  9.2000000000000       27.553750313456    
  9.6000000000000       17.543146628541    
  10.000000000000       19.882976290225    
  10.400000000000       22.597393451454    
  10.800000000000       12.559627071410    
  11.200000000000       27.505169121006    
  11.600000000000       49.986327528823    
  12.000000000000       32.536901112554    
  12.400000000000       15.038161267048    
  12.800000000000       29.895766723504    
  13.200000000000       20.022223491133    
  13.600000000000       27.602898917037    
  14.000000000000       25.079813641372    
  14.400000000000       17.570663266290    
  14.800000000000       17.575185159463    
  15.200000000000       19.973864370559    
  15.600000000000       27.584974047934    
  16.000000000000       27.491528326326    
  16.400000000000       30.037128560936    
  16.800000000000       17.528091164368    
  17.200000000000       17.511221683903    
  17.600000000000       14.934366366604    
  18.000000000000       14.953648367876    
  18.400000000000       7.5369949727602    
  18.800000000000       14.963085212739    
  19.200000000000       17.471650461877    
  19.600000000000       10.045839387283    
  20.000000000000       0.0000000000000    
ZONE T= "Xw:     39.5300      Yw:     34.1100      Rw:    0.100000      Zwbot:     13.5000      Zwtop:     14.0000       Specie:  1 "
 0.40000000000000       0.0000000000000    
 0.80000000000000       0.0000000000000    
  1.2000000000000       0.0000000000000    
  1.6000000000000       0.0000000000000    
  2.0000000000000       0.0000000000000    
  2.4000000000000       0.0000000000000    
  2.8000000000000       7.5450229075231    
  3.2000000000000       2.5150076358410    
  3.6000000000000       7.5450229075231    
  4.0000000000000       5.0300152716820    
  4.4000000000000       0.0000000000000    
  4.8000000000000       5.0003439654966    
  5.2000000000000       0.0000000000000    
  5.6000000000000       0.0000000000000    
  6.0000000000000       7.5739119876634    
  6.4000000000000       15.120253130359    
  6.8000000000000       7.5555314243514    
  7.2000000000000       12.569017496039    
  7.6000000000000       12.544282734058    
  8.0000000000000       20.165350760837    
  8.4000000000000       7.5421081861968    
  8.8000000000000       17.622042428239    
  9.2000000000000       17.607419294666    
  9.6000000000000       17.616493705646    
  10.000000000000       17.597603168208    
  10.400000000000       20.140076624459    
  10.800000000000       19.987167075017    
  11.200000000000       19.948304839785    
  11.600000000000       37.568298050836    
  12.000000000000       15.060633066884    
  12.400000000000       30.121834517474    
  12.800000000000       32.655280844311    
  13.200000000000       12.501074850628    
  13.600000000000       24.927644726805    
  14.000000000000       15.024204815363    
  14.400000000000       19.974310152116    
  14.800000000000       15.025576874624    
  15.200000000000       29.973567302793    
  15.600000000000       17.491409055768    
  16.000000000000       10.085114962513    
  16.400000000000       32.588538751873    
  16.800000000000       22.462344248073    
  17.200000000000       27.511561846188    
  17.600000000000       15.069368584797    
  18.000000000000       12.560794422615    
  18.400000000000       17.543212819817    
  18.800000000000       7.5046391863106    
  19.200000000000       5.0443865080326    
  19.600000000000       15.023185107231    
  20.000000000000       7.4925547304382    
ZONE T= "Xw:     39.4300      Yw:     34.0100      Rw:    0.100000      Zwbot:     10.5000      Zwtop:     11.1000       Specie:  1 "
 0.40000000000000       7.5339612855788    
 0.80000000000000       7.4529200859249    
  1.2000000000000       4.9760955833655    
  1.6000000000000       12.449388856192    
  2.0000000000000       14.988327622366    
  2.4000000000000       29.903539295841    
  2.8000000000000       25.025106131552    
  3.2000000000000       4.9655176441033    
  3.6000000000000       7.5400508414635    
  4.0000000000000       20.116212913881    
  4.4000000000000       30.155552502814    
  4.8000000000000       35.255315822659    
  5.2000000000000       25.114369347320    
  5.6000000000000       24.978068304463    
  6.0000000000000       20.041659805113    
  6.4000000000000       25.041106053457    
  6.8000000000000       25.075419875035    
  7.2000000000000       32.519268018116    
  7.6000000000000       42.438007310888    
  8.0000000000000       27.331392820633    
  8.4000000000000       29.966474645569    
  8.8000000000000       42.525130737291    
  9.2000000000000       17.441213040454    
  9.6000000000000       32.278020451011    
  10.000000000000       17.453751808375    