 TITLE="TECPLOT input file: Breakthrough Curves" 
 VARIABLES="Time" "Concentrations" 
ZONE T= "Xw:     39.9300      Yw:     22.4100      Rw:    0.100000      Zwbot:     16.5000      Zwtop:     17.0000       Specie:  1 "
 0.40000000000000       0.0000000000000    
 0.80000000000000       0.0000000000000    
  1.2000000000000       0.0000000000000    
  1.6000000000000       0.0000000000000    
  2.0000000000000       0.0000000000000    
  2.4000000000000       0.0000000000000    
  2.8000000000000       0.0000000000000    
  3.2000000000000       0.0000000000000    
  3.6000000000000       0.0000000000000    
  4.0000000000000       0.0000000000000    
  4.4000000000000       0.0000000000000    
  4.8000000000000       0.0000000000000    
  5.2000000000000       0.0000000000000    
  5.6000000000000       0.0000000000000    
  6.0000000000000       0.0000000000000    
  6.4000000000000       0.0000000000000    
  6.8000000000000       0.0000000000000    
  7.2000000000000       0.0000000000000    
  7.6000000000000       0.0000000000000    
  8.0000000000000       0.0000000000000    
  8.4000000000000       0.0000000000000    
  8.8000000000000       0.0000000000000    
  9.2000000000000       0.0000000000000    
  9.6000000000000       0.0000000000000    
  10.000000000000       0.0000000000000    
  10.400000000000       0.0000000000000    
  10.800000000000       0.0000000000000    
  11.200000000000       0.0000000000000    
  11.600000000000       0.0000000000000    
  12.000000000000       5.0098477927030    
  12.400000000000       5.0098477927030    
  12.800000000000       0.0000000000000    
  13.200000000000       0.0000000000000    
  13.600000000000       0.0000000000000    
  14.000000000000       0.0000000000000    
  14.400000000000       0.0000000000000    
  14.800000000000       0.0000000000000    
  15.200000000000       0.0000000000000    
  15.600000000000       0.0000000000000    
  16.000000000000       0.0000000000000    
  16.400000000000       0.0000000000000    
  16.800000000000       0.0000000000000    
  17.200000000000       0.0000000000000    
  17.600000000000       0.0000000000000    
  18.000000000000       0.0000000000000    
  18.400000000000       0.0000000000000    
  18.800000000000       2.5142878871183    
  19.200000000000       0.0000000000000    
  19.600000000000       4.9867280769438    
  20.000000000000       2.4933640384719    
ZONE T= "Xw:     39.9300      Yw:     22.4100      Rw:    0.100000      Zwbot:     13.5000      Zwtop:     14.0000       Specie:  1 "
 0.40000000000000       0.0000000000000    
 0.80000000000000       0.0000000000000    
  1.2000000000000       0.0000000000000    
  1.6000000000000       0.0000000000000    
  2.0000000000000       0.0000000000000    
  2.4000000000000       0.0000000000000    
  2.8000000000000       0.0000000000000    
  3.2000000000000       0.0000000000000    
  3.6000000000000       0.0000000000000    
  4.0000000000000       0.0000000000000    
  4.4000000000000       0.0000000000000    
  4.8000000000000       0.0000000000000    
  5.2000000000000       0.0000000000000    
  5.6000000000000       0.0000000000000    
  6.0000000000000       0.0000000000000    
  6.4000000000000       0.0000000000000    
  6.8000000000000       0.0000000000000    
  7.2000000000000       0.0000000000000    
  7.6000000000000       0.0000000000000    
  8.0000000000000       0.0000000000000    
  8.4000000000000       0.0000000000000    
  8.8000000000000       0.0000000000000    
  9.2000000000000       0.0000000000000    
  9.6000000000000       0.0000000000000    
  10.000000000000       0.0000000000000    
  10.400000000000       10.003549530412    
  10.800000000000       7.5026621478093    
  11.200000000000       0.0000000000000    
  11.600000000000       0.0000000000000    
  12.000000000000       0.0000000000000    
  12.400000000000       2.5008873826031    
  12.800000000000       0.0000000000000    
  13.200000000000       0.0000000000000    
  13.600000000000       0.0000000000000    
  14.000000000000       0.0000000000000    
  14.400000000000       2.5069761131333    
  14.800000000000       0.0000000000000    
  15.200000000000       0.0000000000000    
  15.600000000000       0.0000000000000    
  16.000000000000       0.0000000000000    
  16.400000000000       4.9705182716487    
  16.800000000000       9.9851874164127    
  17.200000000000       12.498231853642    
  17.600000000000       10.004981002891    
  18.000000000000       20.067927829092    
  18.400000000000       10.020419410804    
  18.800000000000       12.569872556357    
  19.200000000000       10.055435754343    
  19.600000000000       7.5248540976703    
  20.000000000000       0.0000000000000    
ZONE T= "Xw:     39.9300      Yw:     22.3100      Rw:    0.100000      Zwbot:     10.5000      Zwtop:     11.0000       Specie:  1 "
 0.40000000000000       0.0000000000000    
 0.80000000000000       0.0000000000000    
  1.2000000000000       0.0000000000000    
  1.6000000000000       0.0000000000000    
  2.0000000000000       0.0000000000000    
  2.4000000000000       0.0000000000000    
  2.8000000000000       0.0000000000000    
  3.2000000000000       0.0000000000000    
  3.6000000000000       0.0000000000000    
  4.0000000000000       2.5052274738310    
  4.4000000000000       2.5052274738310    
  4.8000000000000       0.0000000000000    
  5.2000000000000       0.0000000000000    
  5.6000000000000       2.4753477914844    
  6.0000000000000       7.4865833817564    
  6.4000000000000       17.469868976477    
  6.8000000000000       20.073274114018    
  7.2000000000000       17.557043719416    
  7.6000000000000       5.0367374035272    
  8.0000000000000       20.043310943772    
  8.4000000000000       22.520764515312    
  8.8000000000000       19.988573689306    
  9.2000000000000       27.442140433830    
  9.6000000000000       44.979624986238    
  10.000000000000       34.986190895264    
  10.400000000000       27.616956992109    
  10.800000000000       42.600697446400    
  11.200000000000       37.658690750085    
  11.600000000000       25.111571621515    
  12.000000000000       54.986679591526    
  12.400000000000       42.732818099252    
  12.800000000000       40.234336425558    
  13.200000000000       17.534593213415    
  13.600000000000       27.629232506496    
  14.000000000000       22.516013081905    
  14.400000000000       52.668857102519    
  14.800000000000       22.607839550993    
  15.200000000000       25.073643922920    
  15.600000000000       10.037824442081    
  16.000000000000       5.0092246131035    
  16.400000000000       12.538420995047    
  16.800000000000       7.5312160742577    
  17.200000000000       12.562447959350    
  17.600000000000       12.601305879963    
  18.000000000000       5.0400130770992    
  18.400000000000       10.026309096192    
  18.800000000000       2.5200065385496    
  19.200000000000       0.0000000000000    
  19.600000000000       4.9616024270531    
  20.000000000000       0.0000000000000    
ZONE T= "Xw:     40.0300      Yw:     22.4100      Rw:    0.100000      Zwbot:     7.60000      Zwtop:     8.10000       Specie:  1 "
 0.40000000000000       0.0000000000000    
 0.80000000000000       0.0000000000000    
  1.2000000000000       0.0000000000000    
  1.6000000000000       0.0000000000000    
  2.0000000000000       0.0000000000000    
  2.4000000000000       0.0000000000000    
  2.8000000000000       0.0000000000000    
  3.2000000000000       0.0000000000000    
  3.6000000000000       0.0000000000000    
  4.0000000000000       0.0000000000000    
  4.4000000000000       0.0000000000000    
  4.8000000000000       0.0000000000000    
  5.2000000000000       2.5076507701891    
  5.6000000000000       14.970760163463    
  6.0000000000000       9.9702938650774    
  6.4000000000000       12.433966570947    
  6.8000000000000       17.477485766803    
  7.2000000000000       22.454261278818    
  7.6000000000000       34.994147770805    
  8.0000000000000       25.050922076401    
  8.4000000000000       44.996783477784    
  8.8000000000000       34.962849658546    
  9.2000000000000       34.967511905296    
  9.6000000000000       49.965787952447    
  10.000000000000       45.004139697839    
  10.400000000000       49.876824312702    
  10.800000000000       27.404314224106    
  11.200000000000       29.997786276706    
  11.600000000000       17.428484590430    
  12.000000000000       24.919828453466    
  12.400000000000       37.402179727016    
  12.800000000000       20.056148531910    
  13.200000000000       22.522297319040    
  13.600000000000       14.952384745136    
  14.000000000000       2.5209293348733    
  14.400000000000       9.9797702015824    
  14.800000000000       22.431665956046    
  15.200000000000       22.529274816420    
  15.600000000000       24.903142536169    
  16.000000000000       12.460203167122    
  16.400000000000       22.529142148303    
  16.800000000000       19.942845225983    
  17.200000000000       12.546458367386    
  17.600000000000       27.463379635245    
  18.000000000000       39.915343843477    
  18.400000000000       10.026604495966    
  18.800000000000       7.5043215613558    
  19.200000000000       15.003441309848    
  19.600000000000       14.990570204140    
  20.000000000000       0.0000000000000    
ZONE T= "Xw:     39.9300      Yw:     22.4100      Rw:    0.100000      Zwbot:     4.50000      Zwtop:     5.00000       Specie:  1 "
 0.40000000000000       0.0000000000000    
 0.80000000000000       0.0000000000000    
  1.2000000000000       0.0000000000000    
  1.6000000000000       0.0000000000000    
  2.0000000000000       0.0000000000000    
  2.4000000000000       0.0000000000000    
  2.8000000000000       0.0000000000000    
  3.2000000000000       0.0000000000000    
  3.6000000000000       2.5050548550957    
  4.0000000000000       2.5195985195733    
  4.4000000000000       7.4971105003328    
  4.8000000000000       5.0141010095549    
  5.2000000000000       12.458639531449    
  5.6000000000000       17.595460635012    
  6.0000000000000       25.020784790456    
  6.4000000000000       12.571840604110    
  6.8000000000000       37.475103053940    
  7.2000000000000       27.609438136558    
  7.6000000000000       54.934680996031    
  8.0000000000000       50.108605263014    
  8.4000000000000       44.923778668934    
  8.8000000000000       35.111584282160    
  9.2000000000000       32.567916036443    
  9.6000000000000       42.537454302599    
  10.000000000000       34.998558746510    
  10.400000000000       24.760661681498    
  10.800000000000       74.943177874916    
  11.200000000000       49.674101385271    
  11.600000000000       37.509361687973    
  12.000000000000       25.013465887413    
  12.400000000000       25.050904752004    
  12.800000000000       44.884543807071    
  13.200000000000       44.961806809231    
  13.600000000000       27.493776621199    
  14.000000000000       2.4791871514998    
  14.400000000000       7.5043725403008    
  14.800000000000       12.476370322500    
  15.200000000000       4.9590191418428    
  15.600000000000       2.4810652483449    
  16.000000000000       0.0000000000000    
  16.400000000000       2.4814808457046    
  16.800000000000       0.0000000000000    
  17.200000000000       2.4814808457046    
  17.600000000000       2.4940438887010    
  18.000000000000       2.4792887885296    
  18.400000000000       7.4957804436004    
  18.800000000000       5.0242732661945    
  19.200000000000       7.5011955061830    
  19.600000000000       2.5129238573493    
  20.000000000000       2.4753477914844    
ZONE T= "Xw:     39.8300      Yw:     28.4100      Rw:    0.100000      Zwbot:     16.5000      Zwtop:     17.0000       Specie:  1 "
 0.40000000000000       0.0000000000000    
 0.80000000000000       0.0000000000000    
  1.2000000000000       0.0000000000000    
  1.6000000000000       0.0000000000000    
  2.0000000000000       0.0000000000000    
  2.4000000000000       0.0000000000000    
  2.8000000000000       0.0000000000000    
  3.2000000000000       0.0000000000000    
  3.6000000000000       0.0000000000000    
  4.0000000000000       0.0000000000000    
  4.4000000000000       0.0000000000000    
  4.8000000000000       2.4999023087464    
  5.2000000000000       0.0000000000000    
  5.6000000000000       9.9009416086734    
  6.0000000000000       7.4801089840402    
  6.4000000000000       7.4472197752694    
  6.8000000000000       9.9342929861287    
  7.2000000000000       7.4908092622966    
  7.6000000000000       4.9531787447329    
  8.0000000000000       5.0504930912098    
  8.4000000000000       5.0090497380586    
  8.8000000000000       2.5097674418605    
  9.2000000000000       7.5429527435512    
  9.6000000000000       2.5139083128402    
  10.000000000000       9.9838681601450    
  10.400000000000       2.5008266666727    
  10.800000000000       7.5198684018596    
  11.200000000000       9.9686938168842    
  11.600000000000       7.5198684018596    
  12.000000000000       9.9996255088102    
  12.400000000000       10.048827922590    
  12.800000000000       7.4379233004711    
  13.200000000000       0.0000000000000    
  13.600000000000       9.9832438299202    
  14.000000000000       15.098701137652    
  14.400000000000       14.893510926105    
  14.800000000000       17.439121869921    
  15.200000000000       15.146539788175    
  15.600000000000       15.114466537259    
  16.000000000000       30.009058064358    
  16.400000000000       10.008177301412    
  16.800000000000       22.520346708954    
  17.200000000000       34.960740058572    
  17.600000000000       7.4639177714172    
  18.000000000000       17.440090642500    
  18.400000000000       15.048558789820    
  18.800000000000       0.0000000000000    
  19.200000000000       0.0000000000000    
  19.600000000000       5.0393783033487    
  20.000000000000       0.0000000000000    
ZONE T= "Xw:     39.9300      Yw:     28.4100      Rw:    0.100000      Zwbot:     13.5000      Zwtop:     14.0000       Specie:  1 "
 0.40000000000000       0.0000000000000    
 0.80000000000000       0.0000000000000    
  1.2000000000000       0.0000000000000    
  1.6000000000000       0.0000000000000    
  2.0000000000000       0.0000000000000    
  2.4000000000000       0.0000000000000    
  2.8000000000000       0.0000000000000    
  3.2000000000000       0.0000000000000    
  3.6000000000000       0.0000000000000    
  4.0000000000000       0.0000000000000    
  4.4000000000000       0.0000000000000    
  4.8000000000000       0.0000000000000    
  5.2000000000000       0.0000000000000    
  5.6000000000000       0.0000000000000    
  6.0000000000000       0.0000000000000    
  6.4000000000000       0.0000000000000    
  6.8000000000000       0.0000000000000    
  7.2000000000000       0.0000000000000    
  7.6000000000000       0.0000000000000    
  8.0000000000000       0.0000000000000    
  8.4000000000000       0.0000000000000    
  8.8000000000000       0.0000000000000    
  9.2000000000000       0.0000000000000    
  9.6000000000000       0.0000000000000    
  10.000000000000       0.0000000000000    
  10.400000000000       0.0000000000000    
  10.800000000000       0.0000000000000    
  11.200000000000       0.0000000000000    
  11.600000000000       0.0000000000000    
  12.000000000000       0.0000000000000    
  12.400000000000       0.0000000000000    
  12.800000000000       0.0000000000000    
  13.200000000000       7.5434052421933    
  13.600000000000       17.631871841673    
  14.000000000000       2.4848535840347    
  14.400000000000       2.4848535840347    
  14.800000000000       0.0000000000000    
  15.200000000000       0.0000000000000    
  15.600000000000       4.9840606184566    
  16.000000000000       2.4992070344220    
  16.400000000000       5.0195348837209    
  16.800000000000       0.0000000000000    
  17.200000000000       0.0000000000000    
  17.600000000000       5.0304190813303    
  18.000000000000       5.0304190813303    
  18.400000000000       0.0000000000000    
  18.800000000000       7.5347444243861    
  19.200000000000       15.064046749967    
  19.600000000000       12.492481440101    
  20.000000000000       5.0000179339210    
ZONE T= "Xw:     39.8300      Yw:     28.4100      Rw:    0.100000      Zwbot:     10.6000      Zwtop:     11.2000       Specie:  1 "
 0.40000000000000       0.0000000000000    
 0.80000000000000       0.0000000000000    
  1.2000000000000       0.0000000000000    
  1.6000000000000       0.0000000000000    
  2.0000000000000       2.5052618650380    
  2.4000000000000       5.0079012859141    
  2.8000000000000       10.010557683504    
  3.2000000000000       9.9412779845964    
  3.6000000000000       32.271518102909    
  4.0000000000000       14.971038560487    
  4.4000000000000       9.9792276863103    
  4.8000000000000       12.466930199596    
  5.2000000000000       12.565845584781    
  5.6000000000000       24.884350808445    
  6.0000000000000       19.930032110909    
  6.4000000000000       24.905829312884    
  6.8000000000000       32.228200110114    
  7.2000000000000       24.934361615011    
  7.6000000000000       25.046103258677    
  8.0000000000000       12.443322087843    
  8.4000000000000       42.505988094024    
  8.8000000000000       62.352899937202    
  9.2000000000000       50.185871043674    
  9.6000000000000       42.565726492470    
  10.000000000000       27.497399993006    
  10.400000000000       45.127499911717    
  10.800000000000       30.019236665800    
  11.200000000000       29.963591655798    
  11.600000000000       24.958200925327    
  12.000000000000       32.608321615835    
  12.400000000000       24.917779127751    
  12.800000000000       42.629182010622    
  13.200000000000       27.448543479865    
  13.600000000000       17.543054989795    
  14.000000000000       14.866066514685    
  14.400000000000       14.970059695814    
  14.800000000000       19.931904686787    
  15.200000000000       27.573163395269    
  15.600000000000       12.521509161692    
  16.000000000000       25.033337300218    
  16.400000000000       12.460563576364    
  16.800000000000       20.008087690215    
  17.200000000000       22.456961893997    
  17.600000000000       7.4400811181485    
  18.000000000000       9.9609128207163    
  18.400000000000       9.9612840809815    
  18.800000000000       4.9674635334647    
  19.200000000000       7.4711774125963    
  19.600000000000       7.4509216899414    
  20.000000000000       4.9450240094808    
ZONE T= "Xw:     39.8300      Yw:     28.4100      Rw:    0.100000      Zwbot:     7.60000      Zwtop:     8.30000       Specie:  1 "
 0.40000000000000       0.0000000000000    
 0.80000000000000       0.0000000000000    
  1.2000000000000       0.0000000000000    
  1.6000000000000       0.0000000000000    
  2.0000000000000       0.0000000000000    
  2.4000000000000       0.0000000000000    
  2.8000000000000       4.9914194993317    
  3.2000000000000       2.4840053769879    
  3.6000000000000       12.479262049570    
  4.0000000000000       12.447848936770    
  4.4000000000000       17.443644091575    
  4.8000000000000       14.936339317925    
  5.2000000000000       27.538151812243    
  5.6000000000000       17.626712476492    
  6.0000000000000       37.679201762796    
  6.4000000000000       27.568381861351    
  6.8000000000000       40.026903863583    
  7.2000000000000       32.544374484854    
  7.6000000000000       27.336077188828    
  8.0000000000000       25.024347838445    
  8.4000000000000       27.412815369176    
  8.8000000000000       20.075879184765    
  9.2000000000000       32.424550885907    
  9.6000000000000       27.496365423774    
  10.000000000000       37.543217547473    
  10.400000000000       20.007533477635    
  10.800000000000       42.513206418483    
  11.200000000000       69.886672227641    
  11.600000000000       39.885684626499    
  12.000000000000       35.076917662979    
  12.400000000000       22.451243192848    
  12.800000000000       37.392145347529    
  13.200000000000       29.836918366984    
  13.600000000000       27.409865485153    
  14.000000000000       29.842849357753    
  14.400000000000       20.035601688920    
  14.800000000000       25.002977590358    
  15.200000000000       27.487053190167    
  15.600000000000       17.462370958278    
  16.000000000000       24.939263260682    
  16.400000000000       30.168787178301    
  16.800000000000       22.604996656663    
  17.200000000000       9.9759218443715    
  17.600000000000       27.401193301708    
  18.000000000000       17.513560155906    
  18.400000000000       17.494760894929    
  18.800000000000       17.460927220729    
  19.200000000000       7.5945779165479    
  19.600000000000       27.459230675145    
  20.000000000000       15.105480262426    
ZONE T= "Xw:     39.8300      Yw:     28.5100      Rw:    0.100000      Zwbot:     4.50000      Zwtop:     5.00000       Specie:  1 "
 0.40000000000000       5.0206509734800    
 0.80000000000000       10.065914585807    
  1.2000000000000       12.536682677341    
  1.6000000000000       25.011274167032    
  2.0000000000000       17.459878373455    
  2.4000000000000       30.064167089966    
  2.8000000000000       22.481151207930    
  3.2000000000000       17.453895940198    
  3.6000000000000       9.9787088807837    
  4.0000000000000       27.676497041655    
  4.4000000000000       37.543399480681    
  4.8000000000000       42.458335675058    
  5.2000000000000       35.041420869528    
  5.6000000000000       49.896549899871    
  6.0000000000000       45.076704111531    
  6.4000000000000       47.512402091188    
  6.8000000000000       39.887189887713    
  7.2000000000000       67.458266690043    
  7.6000000000000       55.051534149259    
  8.0000000000000       32.384260077656    
  8.4000000000000       44.949360169225    
  8.8000000000000       42.514831056513    
  9.2000000000000       32.443706206342    
  9.6000000000000       17.464073950539    
  10.000000000000       27.349803542949    
  10.400000000000       22.446658104410    
  10.800000000000       17.446795981578    
  11.200000000000       12.419456904126    
  11.600000000000       17.445370998987    
  12.000000000000       19.816040994199    
  12.400000000000       7.4484172753019    
  12.800000000000       7.5752503611078    
  13.200000000000       19.985479567766    
  13.600000000000       15.037729817175    
  14.000000000000       5.0243094882524    
  14.400000000000       0.0000000000000    
  14.800000000000       10.065706814609    
  15.200000000000       0.0000000000000    
  15.600000000000       5.0557412424225    
  16.000000000000       0.0000000000000    
  16.400000000000       5.0742213887917    
  16.800000000000       2.5371106943959    
  17.200000000000       5.0742213887917    
  17.600000000000       5.0742213887917    
  18.000000000000       7.5428815324969    
  18.400000000000       15.154213615685    
  18.800000000000       2.5371106943959    
  19.200000000000       0.0000000000000    
  19.600000000000       0.0000000000000    
  20.000000000000       0.0000000000000    
ZONE T= "Xw:     39.5300      Yw:     34.0100      Rw:    0.100000      Zwbot:     16.7000      Zwtop:     17.3000       Specie:  1 "
 0.40000000000000       12.408582382360    
 0.80000000000000       15.080881471661    
  1.2000000000000       2.5071183512987    
  1.6000000000000       2.4985747135953    
  2.0000000000000       32.476803509278    
  2.4000000000000       12.527048118790    
  2.8000000000000       4.9755008415865    
  3.2000000000000       2.5119067920648    
  3.6000000000000       2.5256590564069    
  4.0000000000000       12.494643004924    
  4.4000000000000       15.007832247584    
  4.8000000000000       5.0012296845089    
  5.2000000000000       35.025675739418    
  5.6000000000000       22.456353245224    
  6.0000000000000       24.926015688317    
  6.4000000000000       12.407208221255    
  6.8000000000000       27.659190674510    
  7.2000000000000       14.922075082087    
  7.6000000000000       25.040564054617    
  8.0000000000000       19.968335282434    
  8.4000000000000       25.008704006329    
  8.8000000000000       27.579755927448    
  9.2000000000000       17.458614765294    
  9.6000000000000       29.835839854203    
  10.000000000000       14.909447346185    
  10.400000000000       32.352413001212    
  10.800000000000       19.910280204992    
  11.200000000000       27.470524120132    
  11.600000000000       15.004202043940    
  12.000000000000       10.005966136129    
  12.400000000000       22.391594277117    
  12.800000000000       17.419766134764    
  13.200000000000       12.491196273785    
  13.600000000000       7.4781416440221    
  14.000000000000       12.483740178931    
  14.400000000000       9.9348669032592    
  14.800000000000       2.5072056190983    
  15.200000000000       5.0259606799739    
  15.600000000000       7.4924417060460    
  16.000000000000       19.944165019224    
  16.400000000000       4.9852465562245    
  16.800000000000       2.5118927210506    
  17.200000000000       12.469041326411    
  17.600000000000       7.5251876633307    
  18.000000000000       10.091419466843    
  18.400000000000       7.5353509780876    
  18.800000000000       14.930084176174    
  19.200000000000       17.528340335574    
  19.600000000000       12.573681198593    
  20.000000000000       2.4858161444383    
ZONE T= "Xw:     39.5300      Yw:     34.1100      Rw:    0.100000      Zwbot:     13.5000      Zwtop:     14.0000       Specie:  1 "
 0.40000000000000       0.0000000000000    
 0.80000000000000       0.0000000000000    
  1.2000000000000       0.0000000000000    
  1.6000000000000       0.0000000000000    
  2.0000000000000       0.0000000000000    
  2.4000000000000       0.0000000000000    
  2.8000000000000       0.0000000000000    
  3.2000000000000       0.0000000000000    
  3.6000000000000       0.0000000000000    
  4.0000000000000       2.5191596719371    
  4.4000000000000       2.5191596719371    
  4.8000000000000       2.5191596719371    
  5.2000000000000       0.0000000000000    
  5.6000000000000       0.0000000000000    
  6.0000000000000       7.5350291017421    
  6.4000000000000       4.9765939782114    
  6.8000000000000       7.4648909673170    
  7.2000000000000       12.473248846325    
  7.6000000000000       9.9418187109829    
  8.0000000000000       22.377978101049    
  8.4000000000000       24.895192455596    
  8.8000000000000       7.4590701716082    
  9.2000000000000       25.033533840179    
  9.6000000000000       12.510713586520    
  10.000000000000       4.9683499837264    
  10.400000000000       7.4724288280022    
  10.800000000000       12.451096912894    
  11.200000000000       22.509562216396    
  11.600000000000       10.042810762224    
  12.000000000000       27.449897104858    
  12.400000000000       17.467296228207    
  12.800000000000       22.446837219555    
  13.200000000000       32.509348946071    
  13.600000000000       32.542581409721    
  14.000000000000       17.461711998752    
  14.400000000000       14.958522454717    
  14.800000000000       12.427879404178    
  15.200000000000       9.9883969154045    
  15.600000000000       4.9820869375314    
  16.000000000000       12.444557277914    
  16.400000000000       2.4745533152134    
  16.800000000000       14.969153343905    
  17.200000000000       17.617676933990    
  17.600000000000       15.048446017226    
  18.000000000000       20.120817189089    
  18.400000000000       10.003959672941    
  18.800000000000       9.9818077706259    
  19.200000000000       19.977256764714    
  19.600000000000       10.052105126303    
  20.000000000000       10.065834976057    
ZONE T= "Xw:     39.4300      Yw:     34.0100      Rw:    0.100000      Zwbot:     10.5000      Zwtop:     11.1000       Specie:  1 "
 0.40000000000000       42.527078779833    
 0.80000000000000       10.010451646544    
  1.2000000000000       37.380331047916    
  1.6000000000000       17.513775587211    
  2.0000000000000       35.075541591534    
  2.4000000000000       25.098093464608    
  2.8000000000000       27.487141520925    
  3.2000000000000       34.973765807215    
  3.6000000000000       55.041055606716    
  4.0000000000000       25.032506179145    
  4.4000000000000       40.040996459584    
  4.8000000000000       29.939405766986    
  5.2000000000000       12.466421089075    
  5.6000000000000       24.902324173240    
  6.0000000000000       37.278056870969    
  6.4000000000000       29.810389167028    
  6.8000000000000       39.810017038010    
  7.2000000000000       37.399068608364    
  7.6000000000000       17.577020770116    
  8.0000000000000       34.873469960072    
  8.4000000000000       47.566152996153    
  8.8000000000000       32.686843485633    
  9.2000000000000       25.098596296506    
  9.6000000000000       27.655136234076    
  10.000000000000       35.059993731324    