 TITLE="TECPLOT input file: Breakthrough Curves" 
 VARIABLES="Time" "Concentrations" 
ZONE T= "Xw:     39.9300      Yw:     22.4100      Rw:    0.100000      Zwbot:     16.5000      Zwtop:     17.0000       Specie:  1 "
  0.0000000000000       0.0000000000000    
  0.0000000000000       0.0000000000000    
  0.0000000000000       0.0000000000000    
  0.0000000000000       0.0000000000000    
  0.0000000000000       0.0000000000000    
  0.0000000000000       0.0000000000000    
  0.0000000000000       0.0000000000000    
  0.0000000000000       0.0000000000000    
  0.0000000000000       0.0000000000000    
  0.0000000000000       0.0000000000000    
  0.0000000000000       0.0000000000000    
  0.0000000000000       0.0000000000000    
  0.0000000000000       0.0000000000000    
  0.0000000000000       0.0000000000000    
  0.0000000000000       0.0000000000000    
  0.0000000000000       0.0000000000000    
  0.0000000000000       0.0000000000000    
  0.0000000000000       0.0000000000000    
  0.0000000000000       0.0000000000000    
  0.0000000000000       0.0000000000000    
  0.0000000000000       0.0000000000000    
  0.0000000000000       0.0000000000000    
  0.0000000000000       0.0000000000000    
  0.0000000000000       0.0000000000000    
  0.0000000000000       0.0000000000000    
  0.0000000000000       0.0000000000000    
  0.0000000000000       0.0000000000000    
  0.0000000000000       0.0000000000000    
  0.0000000000000       0.0000000000000    
  0.0000000000000       0.0000000000000    
  0.0000000000000       0.0000000000000    
  0.0000000000000       0.0000000000000    
  0.0000000000000       0.0000000000000    
  0.0000000000000       0.0000000000000    
  0.0000000000000       0.0000000000000    
  0.0000000000000       0.0000000000000    
  0.0000000000000       0.0000000000000    
  0.0000000000000       0.0000000000000    
  0.0000000000000       0.0000000000000    
  0.0000000000000       0.0000000000000    
  0.0000000000000       0.0000000000000    
  0.0000000000000       0.0000000000000    
  0.0000000000000       0.0000000000000    
  0.0000000000000       0.0000000000000    
  0.0000000000000       0.0000000000000    
  0.0000000000000       0.0000000000000    
  0.0000000000000       0.0000000000000    
  0.0000000000000       0.0000000000000    
  0.0000000000000       0.0000000000000    
  0.0000000000000       0.0000000000000    
ZONE T= "Xw:     39.9300      Yw:     22.4100      Rw:    0.100000      Zwbot:     13.5000      Zwtop:     14.0000       Specie:  1 "
 0.40000000000000       0.0000000000000    
 0.80000000000000       0.0000000000000    
  1.2000000000000       0.0000000000000    
  1.6000000000000       0.0000000000000    
  2.0000000000000       0.0000000000000    
  2.4000000000000       0.0000000000000    
  2.8000000000000       0.0000000000000    
  3.2000000000000       0.0000000000000    
  3.6000000000000       0.0000000000000    
  4.0000000000000       0.0000000000000    
  4.4000000000000       0.0000000000000    
  4.8000000000000       0.0000000000000    
  5.2000000000000       0.0000000000000    
  5.6000000000000       0.0000000000000    
  6.0000000000000       0.0000000000000    
  6.4000000000000       0.0000000000000    
  6.8000000000000       0.0000000000000    
  7.2000000000000       0.0000000000000    
  7.6000000000000       0.0000000000000    
  8.0000000000000       0.0000000000000    
  8.4000000000000       0.0000000000000    
  8.8000000000000       0.0000000000000    
  9.2000000000000       0.0000000000000    
  9.6000000000000       0.0000000000000    
  10.000000000000       0.0000000000000    
  10.400000000000       0.0000000000000    
  10.800000000000       0.0000000000000    
  11.200000000000       0.0000000000000    
  11.600000000000       0.0000000000000    
  12.000000000000       2.5154854286555    
  12.400000000000       5.0309708573110    
  12.800000000000       5.0309708573110    
  13.200000000000       0.0000000000000    
  13.600000000000       0.0000000000000    
  14.000000000000       0.0000000000000    
  14.400000000000       7.5360863937030    
  14.800000000000       2.5120287979010    
  15.200000000000       2.5154854286555    
  15.600000000000       7.4631084672192    
  16.000000000000       2.5154854286555    
  16.400000000000       0.0000000000000    
  16.800000000000       0.0000000000000    
  17.200000000000       0.0000000000000    
  17.600000000000       2.5167074530987    
  18.000000000000       0.0000000000000    
  18.400000000000       7.4874016879726    
  18.800000000000       17.564175104444    
  19.200000000000       20.015969385059    
  19.600000000000       2.4921509321995    
  20.000000000000       2.5057921096306    
ZONE T= "Xw:     39.9300      Yw:     22.3100      Rw:    0.100000      Zwbot:     10.5000      Zwtop:     11.0000       Specie:  1 "
 0.40000000000000       0.0000000000000    
 0.80000000000000       0.0000000000000    
  1.2000000000000       0.0000000000000    
  1.6000000000000       0.0000000000000    
  2.0000000000000       0.0000000000000    
  2.4000000000000       0.0000000000000    
  2.8000000000000       0.0000000000000    
  3.2000000000000       0.0000000000000    
  3.6000000000000       0.0000000000000    
  4.0000000000000       0.0000000000000    
  4.4000000000000       0.0000000000000    
  4.8000000000000       0.0000000000000    
  5.2000000000000       0.0000000000000    
  5.6000000000000       0.0000000000000    
  6.0000000000000       0.0000000000000    
  6.4000000000000       0.0000000000000    
  6.8000000000000       7.4811789275786    
  7.2000000000000       4.9787576095187    
  7.6000000000000       2.4803147625041    
  8.0000000000000       9.9503077904132    
  8.4000000000000       17.482014123576    
  8.8000000000000       22.397539535901    
  9.2000000000000       22.386669372581    
  9.6000000000000       15.036080527647    
  10.000000000000       37.523868935975    
  10.400000000000       44.940756464850    
  10.800000000000       22.506281186316    
  11.200000000000       19.965389305644    
  11.600000000000       27.517920772665    
  12.000000000000       25.011160981160    
  12.400000000000       32.433545379710    
  12.800000000000       19.952815382087    
  13.200000000000       42.491372291941    
  13.600000000000       22.554825157049    
  14.000000000000       42.512853890401    
  14.400000000000       22.511383904983    
  14.800000000000       17.455786551632    
  15.200000000000       22.491395395928    
  15.600000000000       4.9777640662454    
  16.000000000000       19.933250596416    
  16.400000000000       19.984132013390    
  16.800000000000       7.4766396971550    
  17.200000000000       7.4803445181750    
  17.600000000000       7.4708192456589    
  18.000000000000       2.4891258492280    
  18.400000000000       14.882342370472    
  18.800000000000       14.903254210131    
  19.200000000000       9.9565033969121    
  19.600000000000       4.9698670207632    
  20.000000000000       0.0000000000000    
ZONE T= "Xw:     40.0300      Yw:     22.4100      Rw:    0.100000      Zwbot:     7.60000      Zwtop:     8.10000       Specie:  1 "
 0.40000000000000       0.0000000000000    
 0.80000000000000       0.0000000000000    
  1.2000000000000       0.0000000000000    
  1.6000000000000       0.0000000000000    
  2.0000000000000       0.0000000000000    
  2.4000000000000       0.0000000000000    
  2.8000000000000       0.0000000000000    
  3.2000000000000       0.0000000000000    
  3.6000000000000       0.0000000000000    
  4.0000000000000       0.0000000000000    
  4.4000000000000       2.5269188846148    
  4.8000000000000       4.9649793633293    
  5.2000000000000       0.0000000000000    
  5.6000000000000       14.943118811281    
  6.0000000000000       22.441980900594    
  6.4000000000000       45.074087787930    
  6.8000000000000       24.996270201087    
  7.2000000000000       37.614908276954    
  7.6000000000000       15.016237907179    
  8.0000000000000       32.468075805487    
  8.4000000000000       27.425357140847    
  8.8000000000000       19.945066578208    
  9.2000000000000       27.330524369967    
  9.6000000000000       44.875514197106    
  10.000000000000       54.770192427969    
  10.400000000000       52.390049958060    
  10.800000000000       54.893346968383    
  11.200000000000       57.358575664312    
  11.600000000000       29.943208774515    
  12.000000000000       24.951535378095    
  12.400000000000       44.871699144786    
  12.800000000000       77.457433395024    
  13.200000000000       27.521181392346    
  13.600000000000       29.917146329054    
  14.000000000000       20.018376724524    
  14.400000000000       37.514367170935    
  14.800000000000       14.991211399412    
  15.200000000000       42.551777930860    
  15.600000000000       40.077383387382    
  16.000000000000       37.524378651905    
  16.400000000000       9.9533847128723    
  16.800000000000       17.538237416644    
  17.200000000000       34.929436917822    
  17.600000000000       32.382628298460    
  18.000000000000       27.423867196388    
  18.400000000000       12.486453852058    
  18.800000000000       7.4865437721043    
  19.200000000000       10.018192777233    
  19.600000000000       10.060729154892    
  20.000000000000       10.037354029990    
ZONE T= "Xw:     39.9300      Yw:     22.4100      Rw:    0.100000      Zwbot:     4.50000      Zwtop:     5.00000       Specie:  1 "
 0.40000000000000       0.0000000000000    
 0.80000000000000       0.0000000000000    
  1.2000000000000       0.0000000000000    
  1.6000000000000       0.0000000000000    
  2.0000000000000       0.0000000000000    
  2.4000000000000       0.0000000000000    
  2.8000000000000       0.0000000000000    
  3.2000000000000       2.5176444899390    
  3.6000000000000       0.0000000000000    
  4.0000000000000       2.5176444899390    
  4.4000000000000       0.0000000000000    
  4.8000000000000       2.4793614643180    
  5.2000000000000       9.9927150083097    
  5.6000000000000       30.038441917329    
  6.0000000000000       20.013890392785    
  6.4000000000000       14.931860074723    
  6.8000000000000       37.509914470184    
  7.2000000000000       35.039914546886    
  7.6000000000000       45.011425260688    
  8.0000000000000       32.598638506022    
  8.4000000000000       37.448630131155    
  8.8000000000000       32.480654996592    
  9.2000000000000       32.405292720147    
  9.6000000000000       49.850753667613    
  10.000000000000       27.469067789262    
  10.400000000000       52.628197967067    
  10.800000000000       54.983589557886    
  11.200000000000       29.949188845988    
  11.600000000000       39.954456981244    
  12.000000000000       54.776399310201    
  12.400000000000       27.412942164835    
  12.800000000000       14.977462350838    
  13.200000000000       7.4526384622125    
  13.600000000000       14.966000317489    
  14.000000000000       14.956808599538    
  14.400000000000       2.5293928626123    
  14.800000000000       5.0587857252245    
  15.200000000000       15.043225277198    
  15.600000000000       5.0587857252245    
  16.000000000000       2.4991529147907    
  16.400000000000       10.006171855668    
  16.800000000000       2.5141618861465    
  17.200000000000       2.4874240515131    
  17.600000000000       0.0000000000000    
  18.000000000000       0.0000000000000    
  18.400000000000       0.0000000000000    
  18.800000000000       12.539196651168    
  19.200000000000       2.5194915713453    
  19.600000000000       2.5194915713453    
  20.000000000000       2.5194915713453    
ZONE T= "Xw:     39.8300      Yw:     28.4100      Rw:    0.100000      Zwbot:     16.5000      Zwtop:     17.0000       Specie:  1 "
 0.40000000000000       0.0000000000000    
 0.80000000000000       0.0000000000000    
  1.2000000000000       0.0000000000000    
  1.6000000000000       0.0000000000000    
  2.0000000000000       0.0000000000000    
  2.4000000000000       0.0000000000000    
  2.8000000000000       0.0000000000000    
  3.2000000000000       0.0000000000000    
  3.6000000000000       0.0000000000000    
  4.0000000000000       0.0000000000000    
  4.4000000000000       2.4949844997745    
  4.8000000000000       4.9899689995491    
  5.2000000000000       2.4949844997745    
  5.6000000000000       5.0195348837209    
  6.0000000000000       0.0000000000000    
  6.4000000000000       0.0000000000000    
  6.8000000000000       0.0000000000000    
  7.2000000000000       10.039069767442    
  7.6000000000000       10.029610815192    
  8.0000000000000       12.490754740498    
  8.4000000000000       4.9917994444605    
  8.8000000000000       9.9558137291148    
  9.2000000000000       17.664391699188    
  9.6000000000000       7.5468122077202    
  10.000000000000       7.4577656737252    
  10.400000000000       2.4983809747431    
  10.800000000000       9.9923115051895    
  11.200000000000       32.551201780178    
  11.600000000000       32.601773816340    
  12.000000000000       15.076589412523    
  12.400000000000       32.682053072166    
  12.800000000000       4.9890581296200    
  13.200000000000       7.5570323927369    
  13.600000000000       7.6110496956650    
  14.000000000000       10.121455698518    
  14.400000000000       12.515397417915    
  14.800000000000       15.053838059489    
  15.200000000000       0.0000000000000    
  15.600000000000       5.0119373612239    
  16.000000000000       9.9224257087301    
  16.400000000000       10.064295833260    
  16.800000000000       32.669881542434    
  17.200000000000       22.425507091559    
  17.600000000000       19.999313695803    
  18.000000000000       9.9999244454209    
  18.400000000000       22.462131472965    
  18.800000000000       20.038841220681    
  19.200000000000       10.078724934978    
  19.600000000000       24.996995016484    
  20.000000000000       9.9601331336217    
ZONE T= "Xw:     39.9300      Yw:     28.4100      Rw:    0.100000      Zwbot:     13.5000      Zwtop:     14.0000       Specie:  1 "
 0.40000000000000       0.0000000000000    
 0.80000000000000       0.0000000000000    
  1.2000000000000       0.0000000000000    
  1.6000000000000       0.0000000000000    
  2.0000000000000       0.0000000000000    
  2.4000000000000       0.0000000000000    
  2.8000000000000       0.0000000000000    
  3.2000000000000       0.0000000000000    
  3.6000000000000       0.0000000000000    
  4.0000000000000       0.0000000000000    
  4.4000000000000       0.0000000000000    
  4.8000000000000       0.0000000000000    
  5.2000000000000       0.0000000000000    
  5.6000000000000       0.0000000000000    
  6.0000000000000       0.0000000000000    
  6.4000000000000       0.0000000000000    
  6.8000000000000       0.0000000000000    
  7.2000000000000       0.0000000000000    
  7.6000000000000       0.0000000000000    
  8.0000000000000       0.0000000000000    
  8.4000000000000       0.0000000000000    
  8.8000000000000       0.0000000000000    
  9.2000000000000       0.0000000000000    
  9.6000000000000       0.0000000000000    
  10.000000000000       0.0000000000000    
  10.400000000000       0.0000000000000    
  10.800000000000       0.0000000000000    
  11.200000000000       0.0000000000000    
  11.600000000000       0.0000000000000    
  12.000000000000       2.4948044785221    
  12.400000000000       2.4933130166878    
  12.800000000000       0.0000000000000    
  13.200000000000       4.9896089570442    
  13.600000000000       0.0000000000000    
  14.000000000000       0.0000000000000    
  14.400000000000       0.0000000000000    
  14.800000000000       7.4537816170142    
  15.200000000000       0.0000000000000    
  15.600000000000       0.0000000000000    
  16.000000000000       5.0176999341326    
  16.400000000000       9.9675157865398    
  16.800000000000       4.9779068890258    
  17.200000000000       7.4821084636717    
  17.600000000000       9.9777263927239    
  18.000000000000       0.0000000000000    
  18.400000000000       2.5129207189955    
  18.800000000000       2.5322028932027    
  19.200000000000       0.0000000000000    
  19.600000000000       0.0000000000000    
  20.000000000000       7.5966086796081    
ZONE T= "Xw:     39.8300      Yw:     28.4100      Rw:    0.100000      Zwbot:     10.6000      Zwtop:     11.2000       Specie:  1 "
 0.40000000000000       0.0000000000000    
 0.80000000000000       0.0000000000000    
  1.2000000000000       0.0000000000000    
  1.6000000000000       0.0000000000000    
  2.0000000000000       2.5453048275735    
  2.4000000000000       10.096572118187    
  2.8000000000000       2.5029812315202    
  3.2000000000000       2.5029812315202    
  3.6000000000000       10.086510591111    
  4.0000000000000       7.5470296619333    
  4.4000000000000       12.618848948654    
  4.8000000000000       20.002664990079    
  5.2000000000000       22.419436860673    
  5.6000000000000       30.149253018783    
  6.0000000000000       22.560336796878    
  6.4000000000000       15.080093212924    
  6.8000000000000       20.076054750894    
  7.2000000000000       17.531263799188    
  7.6000000000000       15.075993463749    
  8.0000000000000       25.033059572696    
  8.4000000000000       32.582675101465    
  8.8000000000000       47.390373527027    
  9.2000000000000       27.487862200326    
  9.6000000000000       25.125484035753    
  10.000000000000       22.608789874466    
  10.400000000000       9.9927893653038    
  10.800000000000       32.476310301002    
  11.200000000000       30.112995543768    
  11.600000000000       32.513888554472    
  12.000000000000       62.958981633175    
  12.400000000000       52.552865317967    
  12.800000000000       50.097941696563    
  13.200000000000       47.470018759198    
  13.600000000000       42.539156854354    
  14.000000000000       30.038231467531    
  14.400000000000       27.624003206136    
  14.800000000000       32.602006368283    
  15.200000000000       34.866412057422    
  15.600000000000       34.934220095146    
  16.000000000000       32.591197094410    
  16.400000000000       15.067757247572    
  16.800000000000       14.948441797211    
  17.200000000000       14.994065824536    
  17.600000000000       30.004967328514    
  18.000000000000       12.596378231693    
  18.400000000000       35.006388978732    
  18.800000000000       27.472992405219    
  19.200000000000       12.473312193350    
  19.600000000000       4.9828406992009    
  20.000000000000       14.941527910184    
ZONE T= "Xw:     39.8300      Yw:     28.4100      Rw:    0.100000      Zwbot:     7.60000      Zwtop:     8.30000       Specie:  1 "
 0.40000000000000       0.0000000000000    
 0.80000000000000       0.0000000000000    
  1.2000000000000       5.0532813326116    
  1.6000000000000       2.5266406663058    
  2.0000000000000       0.0000000000000    
  2.4000000000000       0.0000000000000    
  2.8000000000000       2.5346225470461    
  3.2000000000000       5.0612632133519    
  3.6000000000000       7.4851650281199    
  4.0000000000000       2.4872150092138    
  4.4000000000000       7.4956634718299    
  4.8000000000000       17.592333014707    
  5.2000000000000       17.368861147330    
  5.6000000000000       20.186519167901    
  6.0000000000000       17.593550578871    
  6.4000000000000       30.140673129063    
  6.8000000000000       30.257450379541    
  7.2000000000000       22.557170025988    
  7.6000000000000       27.641476691599    
  8.0000000000000       9.9703159518899    
  8.4000000000000       12.391055769940    
  8.8000000000000       12.555975849206    
  9.2000000000000       12.574766245142    
  9.6000000000000       15.037303223126    
  10.000000000000       39.894131125097    
  10.400000000000       37.570927250204    
  10.800000000000       27.522575741072    
  11.200000000000       34.915594398167    
  11.600000000000       45.113054549820    
  12.000000000000       27.578991682841    
  12.400000000000       40.288665798722    
  12.800000000000       32.627478007748    
  13.200000000000       34.940989167720    
  13.600000000000       32.492529066392    
  14.000000000000       14.974966150349    
  14.400000000000       12.582508496200    
  14.800000000000       24.992630996888    
  15.200000000000       22.511541255492    
  15.600000000000       39.940898406336    
  16.000000000000       19.985186760332    
  16.400000000000       22.515258511769    
  16.800000000000       30.128294976192    
  17.200000000000       34.974715712408    
  17.600000000000       25.123759325773    
  18.000000000000       37.744259487129    
  18.400000000000       32.594897187393    
  18.800000000000       34.909780342542    
  19.200000000000       19.939876072301    
  19.600000000000       27.422665009611    
  20.000000000000       2.4737389841757    
ZONE T= "Xw:     39.8300      Yw:     28.5100      Rw:    0.100000      Zwbot:     4.50000      Zwtop:     5.00000       Specie:  1 "
 0.40000000000000       10.027305166119    
 0.80000000000000       9.9349617089081    
  1.2000000000000       7.5391468406458    
  1.6000000000000       7.4465118103055    
  2.0000000000000       17.517654330869    
  2.4000000000000       29.959068923130    
  2.8000000000000       22.553165831108    
  3.2000000000000       40.127138763164    
  3.6000000000000       32.484339794098    
  4.0000000000000       40.028197519309    
  4.4000000000000       12.509634288301    
  4.8000000000000       22.471708814905    
  5.2000000000000       54.702893553776    
  5.6000000000000       25.037621653474    
  6.0000000000000       32.369672757867    
  6.4000000000000       22.480695566397    
  6.8000000000000       37.636052139485    
  7.2000000000000       42.632098840055    
  7.6000000000000       40.258464300330    
  8.0000000000000       19.996800107233    
  8.4000000000000       45.011012175132    
  8.8000000000000       30.093874618461    
  9.2000000000000       27.429422107482    
  9.6000000000000       32.378968311197    
  10.000000000000       34.994298581353    
  10.400000000000       10.044107206964    
  10.800000000000       20.040475466794    
  11.200000000000       53.441706829260    
  11.600000000000       10.048298509747    
  12.000000000000       7.5565495219700    
  12.400000000000       54.307967379360    
  12.800000000000       2.4963862098513    
  13.200000000000       12.544316480253    
  13.600000000000       12.528302328050    
  14.000000000000       64.295573589594    
  14.400000000000       28.403543154456    
  14.800000000000       9.9354021612500    
  15.200000000000       0.0000000000000    
  15.600000000000       0.0000000000000    
  16.000000000000       0.0000000000000    
  16.400000000000       0.0000000000000    
  16.800000000000       0.0000000000000    
  17.200000000000       0.0000000000000    
  17.600000000000       0.0000000000000    
  18.000000000000       0.0000000000000    
  18.400000000000       0.0000000000000    
  18.800000000000       0.0000000000000    
  19.200000000000       0.0000000000000    
  19.600000000000       0.0000000000000    
  20.000000000000       0.0000000000000    
ZONE T= "Xw:     39.5300      Yw:     34.0100      Rw:    0.100000      Zwbot:     16.7000      Zwtop:     17.3000       Specie:  1 "
 0.40000000000000       0.0000000000000    
 0.80000000000000       0.0000000000000    
  1.2000000000000       0.0000000000000    
  1.6000000000000       0.0000000000000    
  2.0000000000000       0.0000000000000    
  2.4000000000000       0.0000000000000    
  2.8000000000000       10.088555589711    
  3.2000000000000       5.0374944787139    
  3.6000000000000       5.0643543767792    
  4.0000000000000       0.0000000000000    
  4.4000000000000       7.5533546759867    
  4.8000000000000       15.072842223324    
  5.2000000000000       17.568606708607    
  5.6000000000000       25.071736862684    
  6.0000000000000       5.0071506188363    
  6.4000000000000       2.4969509848647    
  6.8000000000000       7.4775467673512    
  7.2000000000000       20.056376973676    
  7.6000000000000       42.586674180073    
  8.0000000000000       32.638773253301    
  8.4000000000000       37.568267104887    
  8.8000000000000       15.118760670380    
  9.2000000000000       24.973144312320    
  9.6000000000000       42.515090829221    
  10.000000000000       30.153985485286    
  10.400000000000       17.512833654642    
  10.800000000000       34.910866719203    
  11.200000000000       32.459647667283    
  11.600000000000       9.9920362280242    
  12.000000000000       22.564678063457    
  12.400000000000       12.486980470178    
  12.800000000000       22.559276658418    
  13.200000000000       20.068095739140    
  13.600000000000       22.532729837537    
  14.000000000000       20.081417140933    
  14.400000000000       25.144549706719    
  14.800000000000       14.989287216958    
  15.200000000000       7.5148721726059    
  15.600000000000       2.5100328045366    
  16.000000000000       7.5222463946835    
  16.400000000000       9.9314422018706    
  16.800000000000       17.492028709557    
  17.200000000000       34.868675603106    
  17.600000000000       22.431366197222    
  18.000000000000       22.514447922190    
  18.400000000000       7.4488553217823    
  18.800000000000       7.4601422362569    
  19.200000000000       14.892275589702    
  19.600000000000       14.935135857106    
  20.000000000000       7.4654032253153    
ZONE T= "Xw:     39.5300      Yw:     34.1100      Rw:    0.100000      Zwbot:     13.5000      Zwtop:     14.0000       Specie:  1 "
 0.40000000000000       0.0000000000000    
 0.80000000000000       0.0000000000000    
  1.2000000000000       0.0000000000000    
  1.6000000000000       0.0000000000000    
  2.0000000000000       0.0000000000000    
  2.4000000000000       0.0000000000000    
  2.8000000000000       0.0000000000000    
  3.2000000000000       0.0000000000000    
  3.6000000000000       0.0000000000000    
  4.0000000000000       0.0000000000000    
  4.4000000000000       0.0000000000000    
  4.8000000000000       2.5008486427594    
  5.2000000000000       0.0000000000000    
  5.6000000000000       2.5026991520759    
  6.0000000000000       5.0242696168680    
  6.4000000000000       2.4730018104115    
  6.8000000000000       12.420702716753    
  7.2000000000000       14.953099210494    
  7.6000000000000       9.9909129124656    
  8.0000000000000       22.596387970491    
  8.4000000000000       22.590470316030    
  8.8000000000000       12.563828881024    
  9.2000000000000       10.057036687069    
  9.6000000000000       0.0000000000000    
  10.000000000000       7.5383771929943    
  10.400000000000       12.494511811895    
  10.800000000000       20.032412074234    
  11.200000000000       2.4854077226189    
  11.600000000000       2.4854077226189    
  12.000000000000       0.0000000000000    
  12.400000000000       7.4389937638285    
  12.800000000000       19.918781746693    
  13.200000000000       17.467074849709    
  13.600000000000       12.465447649635    
  14.000000000000       17.478848245394    
  14.400000000000       12.404976521099    
  14.800000000000       14.899981238898    
  15.200000000000       17.374014858482    
  15.600000000000       14.935905491063    
  16.000000000000       9.9868385004085    
  16.400000000000       9.9150008930007    
  16.800000000000       22.393612494161    
  17.200000000000       17.422473090347    
  17.600000000000       34.718341438729    
  18.000000000000       17.449117914999    
  18.400000000000       7.5236427529621    
  18.800000000000       4.9910109383181    
  19.200000000000       15.049557004318    
  19.600000000000       32.589455394938    
  20.000000000000       12.489569256390    
ZONE T= "Xw:     39.4300      Yw:     34.0100      Rw:    0.100000      Zwbot:     10.5000      Zwtop:     11.1000       Specie:  1 "
 0.40000000000000       17.462318059916    
 0.80000000000000       0.0000000000000    
  1.2000000000000       12.453983830647    
  1.6000000000000       34.783018047184    
  2.0000000000000       24.740806469091    
  2.4000000000000       29.979703820007    
  2.8000000000000       20.071619028865    
  3.2000000000000       12.537870886948    
  3.6000000000000       25.219446037538    
  4.0000000000000       22.585109412174    
  4.4000000000000       35.173230905130    
  4.8000000000000       35.162197553752    
  5.2000000000000       32.610988426297    
  5.6000000000000       25.126338733114    
  6.0000000000000       25.108607377051    
  6.4000000000000       29.983259749784    
  6.8000000000000       27.508350442384    
  7.2000000000000       20.057190697356    
  7.6000000000000       27.656354578923    
  8.0000000000000       32.702711788870    
  8.4000000000000       15.109371984903    
  8.8000000000000       17.431684404930    
  9.2000000000000       25.177500835040    
  9.6000000000000       25.084038191262    
  10.000000000000       30.030843748702    