 TITLE="TECPLOT input file: Breakthrough Curves" 
 VARIABLES="Time" "Concentrations" 
ZONE T= "Xw:     39.9300      Yw:     22.4100      Rw:    0.100000      Zwbot:     16.5000      Zwtop:     17.0000       Specie:  1 "
 0.40000000000000       0.0000000000000    
 0.80000000000000       0.0000000000000    
  1.2000000000000       0.0000000000000    
  1.6000000000000       0.0000000000000    
  2.0000000000000       0.0000000000000    
  2.4000000000000       0.0000000000000    
  2.8000000000000       0.0000000000000    
  3.2000000000000       0.0000000000000    
  3.6000000000000       0.0000000000000    
  4.0000000000000       0.0000000000000    
  4.4000000000000       0.0000000000000    
  4.8000000000000       0.0000000000000    
  5.2000000000000       0.0000000000000    
  5.6000000000000       0.0000000000000    
  6.0000000000000       0.0000000000000    
  6.4000000000000       0.0000000000000    
  6.8000000000000       0.0000000000000    
  7.2000000000000       0.0000000000000    
  7.6000000000000       0.0000000000000    
  8.0000000000000       0.0000000000000    
  8.4000000000000       0.0000000000000    
  8.8000000000000       0.0000000000000    
  9.2000000000000       0.0000000000000    
  9.6000000000000       0.0000000000000    
  10.000000000000       0.0000000000000    
  10.400000000000       0.0000000000000    
  10.800000000000       0.0000000000000    
  11.200000000000       0.0000000000000    
  11.600000000000       0.0000000000000    
  12.000000000000       0.0000000000000    
  12.400000000000       0.0000000000000    
  12.800000000000       0.0000000000000    
  13.200000000000       0.0000000000000    
  13.600000000000       0.0000000000000    
  14.000000000000       0.0000000000000    
  14.400000000000       0.0000000000000    
  14.800000000000       0.0000000000000    
  15.200000000000       0.0000000000000    
  15.600000000000       0.0000000000000    
  16.000000000000       0.0000000000000    
  16.400000000000       0.0000000000000    
  16.800000000000       0.0000000000000    
  17.200000000000       0.0000000000000    
  17.600000000000       0.0000000000000    
  18.000000000000       0.0000000000000    
  18.400000000000       7.4761531338181    
  18.800000000000       2.4920510446060    
  19.200000000000       0.0000000000000    
  19.600000000000       0.0000000000000    
  20.000000000000       4.9932956918314    
ZONE T= "Xw:     39.9300      Yw:     22.4100      Rw:    0.100000      Zwbot:     13.5000      Zwtop:     14.0000       Specie:  1 "
 0.40000000000000       0.0000000000000    
 0.80000000000000       0.0000000000000    
  1.2000000000000       0.0000000000000    
  1.6000000000000       0.0000000000000    
  2.0000000000000       0.0000000000000    
  2.4000000000000       0.0000000000000    
  2.8000000000000       0.0000000000000    
  3.2000000000000       0.0000000000000    
  3.6000000000000       0.0000000000000    
  4.0000000000000       0.0000000000000    
  4.4000000000000       0.0000000000000    
  4.8000000000000       0.0000000000000    
  5.2000000000000       0.0000000000000    
  5.6000000000000       0.0000000000000    
  6.0000000000000       0.0000000000000    
  6.4000000000000       0.0000000000000    
  6.8000000000000       0.0000000000000    
  7.2000000000000       0.0000000000000    
  7.6000000000000       0.0000000000000    
  8.0000000000000       0.0000000000000    
  8.4000000000000       0.0000000000000    
  8.8000000000000       0.0000000000000    
  9.2000000000000       0.0000000000000    
  9.6000000000000       0.0000000000000    
  10.000000000000       0.0000000000000    
  10.400000000000       0.0000000000000    
  10.800000000000       0.0000000000000    
  11.200000000000       0.0000000000000    
  11.600000000000       0.0000000000000    
  12.000000000000       0.0000000000000    
  12.400000000000       2.4894528552968    
  12.800000000000       2.4894528552968    
  13.200000000000       0.0000000000000    
  13.600000000000       12.452882204366    
  14.000000000000       4.9789057105936    
  14.400000000000       9.9578114211871    
  14.800000000000       12.447264276484    
  15.200000000000       17.487996259707    
  15.600000000000       2.4894528552968    
  16.000000000000       5.0059215629446    
  16.400000000000       7.5172114191530    
  16.800000000000       12.524484422180    
  17.200000000000       5.0059303265341    
  17.600000000000       5.0043607126952    
  18.000000000000       2.5138792819281    
  18.400000000000       2.4978459074140    
  18.800000000000       10.006523166330    
  19.200000000000       12.481142048558    
  19.600000000000       12.517774180378    
  20.000000000000       2.4894528552968    
ZONE T= "Xw:     39.9300      Yw:     22.3100      Rw:    0.100000      Zwbot:     10.5000      Zwtop:     11.0000       Specie:  1 "
 0.40000000000000       0.0000000000000    
 0.80000000000000       0.0000000000000    
  1.2000000000000       0.0000000000000    
  1.6000000000000       0.0000000000000    
  2.0000000000000       0.0000000000000    
  2.4000000000000       0.0000000000000    
  2.8000000000000       0.0000000000000    
  3.2000000000000       0.0000000000000    
  3.6000000000000       2.4920510446060    
  4.0000000000000       7.4705558751431    
  4.4000000000000       2.4920510446060    
  4.8000000000000       0.0000000000000    
  5.2000000000000       2.4729630692772    
  5.6000000000000       5.0415788677826    
  6.0000000000000       20.107441330381    
  6.4000000000000       7.5676022993221    
  6.8000000000000       17.478053829893    
  7.2000000000000       40.072585364915    
  7.6000000000000       29.993887003187    
  8.0000000000000       12.525572895360    
  8.4000000000000       22.427796634573    
  8.8000000000000       19.987269549275    
  9.2000000000000       62.731990421861    
  9.6000000000000       25.028670019611    
  10.000000000000       19.956436900284    
  10.400000000000       32.322384875003    
  10.800000000000       34.916936186390    
  11.200000000000       34.941043884942    
  11.600000000000       42.407823104726    
  12.000000000000       37.446714933230    
  12.400000000000       57.288566062699    
  12.800000000000       37.423608771882    
  13.200000000000       27.482780882437    
  13.600000000000       22.515701517226    
  14.000000000000       5.0019743614936    
  14.400000000000       7.5224094539226    
  14.800000000000       9.9887462483907    
  15.200000000000       4.9971234567761    
  15.600000000000       14.998451046470    
  16.000000000000       9.9723760871181    
  16.400000000000       10.032928166484    
  16.800000000000       2.4950707831784    
  17.200000000000       2.4792192062604    
  17.600000000000       24.921284238818    
  18.000000000000       14.960735612244    
  18.400000000000       12.445924504917    
  18.800000000000       12.422458692429    
  19.200000000000       7.4442482840629    
  19.600000000000       0.0000000000000    
  20.000000000000       0.0000000000000    
ZONE T= "Xw:     40.0300      Yw:     22.4100      Rw:    0.100000      Zwbot:     7.60000      Zwtop:     8.10000       Specie:  1 "
 0.40000000000000       0.0000000000000    
 0.80000000000000       0.0000000000000    
  1.2000000000000       0.0000000000000    
  1.6000000000000       0.0000000000000    
  2.0000000000000       0.0000000000000    
  2.4000000000000       0.0000000000000    
  2.8000000000000       0.0000000000000    
  3.2000000000000       0.0000000000000    
  3.6000000000000       0.0000000000000    
  4.0000000000000       0.0000000000000    
  4.4000000000000       2.5055192056022    
  4.8000000000000       2.5226562701040    
  5.2000000000000       7.5165576168066    
  5.6000000000000       0.0000000000000    
  6.0000000000000       10.038745598014    
  6.4000000000000       7.5022184107567    
  6.8000000000000       12.516921536459    
  7.2000000000000       14.944943290397    
  7.6000000000000       29.863540617881    
  8.0000000000000       39.955358816863    
  8.4000000000000       47.476769318046    
  8.8000000000000       42.499062567210    
  9.2000000000000       67.534971623200    
  9.6000000000000       59.939169458156    
  10.000000000000       39.996566776265    
  10.400000000000       30.049349601662    
  10.800000000000       64.819842093342    
  11.200000000000       49.946361264086    
  11.600000000000       44.834953896939    
  12.000000000000       32.415081196944    
  12.400000000000       45.062732514609    
  12.800000000000       17.455291344321    
  13.200000000000       47.429801057164    
  13.600000000000       34.938458197063    
  14.000000000000       37.543153467917    
  14.400000000000       42.538375382043    
  14.800000000000       27.499230347373    
  15.200000000000       25.003811448366    
  15.600000000000       15.032091124085    
  16.000000000000       42.396204458922    
  16.400000000000       17.490516252602    
  16.800000000000       15.001057571629    
  17.200000000000       34.954759121633    
  17.600000000000       25.001926661659    
  18.000000000000       30.066581019400    
  18.400000000000       9.9882864426388    
  18.800000000000       5.0046800508085    
  19.200000000000       4.9976223056490    
  19.600000000000       9.9761061860000    
  20.000000000000       2.4936079685851    
ZONE T= "Xw:     39.9300      Yw:     22.4100      Rw:    0.100000      Zwbot:     4.50000      Zwtop:     5.00000       Specie:  1 "
 0.40000000000000       0.0000000000000    
 0.80000000000000       0.0000000000000    
  1.2000000000000       0.0000000000000    
  1.6000000000000       0.0000000000000    
  2.0000000000000       0.0000000000000    
  2.4000000000000       0.0000000000000    
  2.8000000000000       0.0000000000000    
  3.2000000000000       0.0000000000000    
  3.6000000000000       0.0000000000000    
  4.0000000000000       0.0000000000000    
  4.4000000000000       7.4856750477808    
  4.8000000000000       10.005894213555    
  5.2000000000000       10.049160291890    
  5.6000000000000       12.513242605526    
  6.0000000000000       27.551258381359    
  6.4000000000000       32.418276854474    
  6.8000000000000       42.417913401043    
  7.2000000000000       30.034387490099    
  7.6000000000000       29.949271105909    
  8.0000000000000       34.950066511765    
  8.4000000000000       19.967599947424    
  8.8000000000000       32.446322064699    
  9.2000000000000       47.542485553452    
  9.6000000000000       47.290218536329    
  10.000000000000       55.001663250629    
  10.400000000000       42.635597559310    
  10.800000000000       54.894692302826    
  11.200000000000       37.516214480017    
  11.600000000000       19.971516357418    
  12.000000000000       27.402939313208    
  12.400000000000       20.032749736027    
  12.800000000000       20.034343262787    
  13.200000000000       22.457704339531    
  13.600000000000       29.982654374890    
  14.000000000000       37.428742241826    
  14.400000000000       37.487732184276    
  14.800000000000       27.512275824592    
  15.200000000000       19.989995145692    
  15.600000000000       17.472009756723    
  16.000000000000       2.4995161385150    
  16.400000000000       2.4967400516018    
  16.800000000000       7.5563420954537    
  17.200000000000       7.4846454150627    
  17.600000000000       14.949470327348    
  18.000000000000       4.9770877925257    
  18.400000000000       5.0377166415452    
  18.800000000000       0.0000000000000    
  19.200000000000       0.0000000000000    
  19.600000000000       2.5138773329929    
  20.000000000000       0.0000000000000    
ZONE T= "Xw:     39.8300      Yw:     28.4100      Rw:    0.100000      Zwbot:     16.5000      Zwtop:     17.0000       Specie:  1 "
 0.40000000000000       0.0000000000000    
 0.80000000000000       0.0000000000000    
  1.2000000000000       0.0000000000000    
  1.6000000000000       0.0000000000000    
  2.0000000000000       0.0000000000000    
  2.4000000000000       0.0000000000000    
  2.8000000000000       0.0000000000000    
  3.2000000000000       0.0000000000000    
  3.6000000000000       2.5250936688448    
  4.0000000000000       2.5250936688448    
  4.4000000000000       7.5828749104799    
  4.8000000000000       2.5250936688448    
  5.2000000000000       2.5358807822876    
  5.6000000000000       7.5445896580595    
  6.0000000000000       12.454891067445    
  6.4000000000000       9.9879801337643    
  6.8000000000000       7.5131273426583    
  7.2000000000000       2.4647944057526    
  7.6000000000000       7.5656224871413    
  8.0000000000000       12.568132180743    
  8.4000000000000       12.550133404077    
  8.8000000000000       5.0538103129226    
  9.2000000000000       22.617202253924    
  9.6000000000000       12.568141640345    
  10.000000000000       12.526543609472    
  10.400000000000       7.4944273145310    
  10.800000000000       12.416002254349    
  11.200000000000       14.998373291915    
  11.600000000000       14.867151431354    
  12.000000000000       7.4258948070365    
  12.400000000000       10.025806991764    
  12.800000000000       10.061785584857    
  13.200000000000       19.991680598782    
  13.600000000000       12.447907192390    
  14.000000000000       4.9680215863909    
  14.400000000000       17.431423280961    
  14.800000000000       17.579360816287    
  15.200000000000       10.080081248797    
  15.600000000000       5.0365439304776    
  16.000000000000       12.501109423454    
  16.400000000000       25.032819617533    
  16.800000000000       25.065084777148    
  17.200000000000       22.489882294211    
  17.600000000000       12.521874998159    
  18.000000000000       10.057130555488    
  18.400000000000       25.021144369094    
  18.800000000000       32.532662423940    
  19.200000000000       9.8799418747235    
  19.600000000000       17.514102636542    
  20.000000000000       9.9310683278037    
ZONE T= "Xw:     39.9300      Yw:     28.4100      Rw:    0.100000      Zwbot:     13.5000      Zwtop:     14.0000       Specie:  1 "
 0.40000000000000       0.0000000000000    
 0.80000000000000       0.0000000000000    
  1.2000000000000       0.0000000000000    
  1.6000000000000       0.0000000000000    
  2.0000000000000       0.0000000000000    
  2.4000000000000       0.0000000000000    
  2.8000000000000       0.0000000000000    
  3.2000000000000       0.0000000000000    
  3.6000000000000       0.0000000000000    
  4.0000000000000       0.0000000000000    
  4.4000000000000       0.0000000000000    
  4.8000000000000       0.0000000000000    
  5.2000000000000       0.0000000000000    
  5.6000000000000       0.0000000000000    
  6.0000000000000       0.0000000000000    
  6.4000000000000       0.0000000000000    
  6.8000000000000       0.0000000000000    
  7.2000000000000       2.5082095393059    
  7.6000000000000       0.0000000000000    
  8.0000000000000       0.0000000000000    
  8.4000000000000       0.0000000000000    
  8.8000000000000       5.0164190786118    
  9.2000000000000       0.0000000000000    
  9.6000000000000       0.0000000000000    
  10.000000000000       2.5082095393059    
  10.400000000000       5.0164190786118    
  10.800000000000       5.0059874737862    
  11.200000000000       5.0059874737862    
  11.600000000000       0.0000000000000    
  12.000000000000       7.4933338034410    
  12.400000000000       9.9858329800750    
  12.800000000000       0.0000000000000    
  13.200000000000       4.9955558689607    
  13.600000000000       2.4868795934338    
  14.000000000000       5.0844583942685    
  14.400000000000       2.5349750258957    
  14.800000000000       0.0000000000000    
  15.200000000000       0.0000000000000    
  15.600000000000       0.0000000000000    
  16.000000000000       2.4848099927617    
  16.400000000000       4.9825879272421    
  16.800000000000       4.9696199855234    
  17.200000000000       2.4848099927617    
  17.600000000000       4.9696199855234    
  18.000000000000       2.4848099927617    
  18.400000000000       2.4848099927617    
  18.800000000000       4.9719534847626    
  19.200000000000       7.4405994282302    
  19.600000000000       7.4452096115818    
  20.000000000000       2.5398077507789    
ZONE T= "Xw:     39.8300      Yw:     28.4100      Rw:    0.100000      Zwbot:     10.6000      Zwtop:     11.2000       Specie:  1 "
 0.40000000000000       0.0000000000000    
 0.80000000000000       0.0000000000000    
  1.2000000000000       0.0000000000000    
  1.6000000000000       2.4801998094101    
  2.0000000000000       2.5305879265315    
  2.4000000000000       2.4623576383388    
  2.8000000000000       7.5246286179176    
  3.2000000000000       2.5305879265315    
  3.6000000000000       12.551320482180    
  4.0000000000000       7.4866526827411    
  4.4000000000000       9.9638372213062    
  4.8000000000000       22.730600896375    
  5.2000000000000       17.683052895800    
  5.6000000000000       12.568066858308    
  6.0000000000000       20.207124582820    
  6.4000000000000       32.746974983062    
  6.8000000000000       32.710506957816    
  7.2000000000000       42.714257714918    
  7.6000000000000       42.797498998678    
  8.0000000000000       35.010403893767    
  8.4000000000000       32.490270454099    
  8.8000000000000       34.899398484610    
  9.2000000000000       57.372237963133    
  9.6000000000000       54.842804245457    
  10.000000000000       25.014169380811    
  10.400000000000       39.994720526904    
  10.800000000000       45.053255926922    
  11.200000000000       30.012773211367    
  11.600000000000       32.465471122836    
  12.000000000000       37.461746988289    
  12.400000000000       40.077691296557    
  12.800000000000       19.865970819038    
  13.200000000000       27.312149085296    
  13.600000000000       30.156621631042    
  14.000000000000       49.894912192434    
  14.400000000000       29.870611454322    
  14.800000000000       37.389930237663    
  15.200000000000       14.929988396218    
  15.600000000000       27.479753090544    
  16.000000000000       5.0227119738459    
  16.400000000000       9.9655965078363    
  16.800000000000       5.0437978331242    
  17.200000000000       2.4898716139603    
  17.600000000000       7.5036905839095    
  18.000000000000       7.4436964012156    
  18.400000000000       0.0000000000000    
  18.800000000000       0.0000000000000    
  19.200000000000       2.5422291971342    
  19.600000000000       0.0000000000000    
  20.000000000000       4.9858469772851    
ZONE T= "Xw:     39.8300      Yw:     28.4100      Rw:    0.100000      Zwbot:     7.60000      Zwtop:     8.30000       Specie:  1 "
 0.40000000000000       0.0000000000000    
 0.80000000000000       0.0000000000000    
  1.2000000000000       0.0000000000000    
  1.6000000000000       0.0000000000000    
  2.0000000000000       0.0000000000000    
  2.4000000000000       9.9532241202081    
  2.8000000000000       2.5131464235556    
  3.2000000000000       14.956197433572    
  3.6000000000000       5.0480172900848    
  4.0000000000000       12.667440542422    
  4.4000000000000       24.967125777944    
  4.8000000000000       15.134242233273    
  5.2000000000000       17.716999448690    
  5.6000000000000       25.138777943833    
  6.0000000000000       7.5258480335581    
  6.4000000000000       9.9281324420768    
  6.8000000000000       19.904956687089    
  7.2000000000000       17.371719464876    
  7.6000000000000       24.903876025776    
  8.0000000000000       27.521958606028    
  8.4000000000000       27.304802286071    
  8.8000000000000       35.017523342926    
  9.2000000000000       19.880266320351    
  9.6000000000000       27.589362911176    
  10.000000000000       32.453807843982    
  10.400000000000       19.919660319711    
  10.800000000000       50.178274367610    
  11.200000000000       19.972678070761    
  11.600000000000       30.151983219679    
  12.000000000000       35.108514643321    
  12.400000000000       25.004324806405    
  12.800000000000       37.600903642045    
  13.200000000000       54.816254402873    
  13.600000000000       35.082650704795    
  14.000000000000       42.722869530323    
  14.400000000000       22.482253405266    
  14.800000000000       25.027737176395    
  15.200000000000       50.239599242691    
  15.600000000000       30.043083176652    
  16.000000000000       52.436083027088    
  16.400000000000       47.480416421777    
  16.800000000000       42.759666049897    
  17.200000000000       27.535589685417    
  17.600000000000       7.3979297868091    
  18.000000000000       14.971385213277    
  18.400000000000       17.454816089221    
  18.800000000000       32.503355445605    
  19.200000000000       32.412232002834    
  19.600000000000       47.412440173180    
  20.000000000000       9.9749990997344    
ZONE T= "Xw:     39.8300      Yw:     28.5100      Rw:    0.100000      Zwbot:     4.50000      Zwtop:     5.00000       Specie:  1 "
 0.40000000000000       12.526252519207    
 0.80000000000000       2.5010338398126    
  1.2000000000000       10.028491149804    
  1.6000000000000       17.532465584621    
  2.0000000000000       4.9711158167656    
  2.4000000000000       0.0000000000000    
  2.8000000000000       4.9518113371748    
  3.2000000000000       7.5199122292532    
  3.6000000000000       17.404063550900    
  4.0000000000000       10.013067864530    
  4.4000000000000       25.254979774419    
  4.8000000000000       29.976059877359    
  5.2000000000000       40.009795979116    
  5.6000000000000       34.973783042209    
  6.0000000000000       30.066842772821    
  6.4000000000000       45.167275813263    
  6.8000000000000       57.793219852318    
  7.2000000000000       54.960674073197    
  7.6000000000000       27.460621820472    
  8.0000000000000       17.399381337634    
  8.4000000000000       32.507405764769    
  8.8000000000000       54.998574176467    
  9.2000000000000       39.824444855631    
  9.6000000000000       27.603690571962    
  10.000000000000       25.049266949129    
  10.400000000000       14.940347886564    
  10.800000000000       9.9580845643713    
  11.200000000000       25.002606942759    
  11.600000000000       12.482779281922    
  12.000000000000       15.078382934944    
  12.400000000000       15.037234818231    
  12.800000000000       7.5319894492001    
  13.200000000000       5.0053195211374    
  13.600000000000       2.4829703631731    
  14.000000000000       5.0200286394966    
  14.400000000000       0.0000000000000    
  14.800000000000       0.0000000000000    
  15.200000000000       2.5100143197483    
  15.600000000000       0.0000000000000    
  16.000000000000       0.0000000000000    
  16.400000000000       5.0445520974133    
  16.800000000000       0.0000000000000    
  17.200000000000       0.0000000000000    
  17.600000000000       0.0000000000000    
  18.000000000000       0.0000000000000    
  18.400000000000       0.0000000000000    
  18.800000000000       0.0000000000000    
  19.200000000000       0.0000000000000    
  19.600000000000       0.0000000000000    
  20.000000000000       0.0000000000000    
ZONE T= "Xw:     39.5300      Yw:     34.0100      Rw:    0.100000      Zwbot:     16.7000      Zwtop:     17.3000       Specie:  1 "
 0.40000000000000       7.5102188787309    
 0.80000000000000       2.5034062929103    
  1.2000000000000       2.5034062929103    
  1.6000000000000       2.5228573331735    
  2.0000000000000       0.0000000000000    
  2.4000000000000       0.0000000000000    
  2.8000000000000       4.9974324191983    
  3.2000000000000       0.0000000000000    
  3.6000000000000       2.5170234627021    
  4.0000000000000       7.4495118095668    
  4.4000000000000       9.9685997898627    
  4.8000000000000       19.914574242888    
  5.2000000000000       7.4644945379447    
  5.6000000000000       15.010239175480    
  6.0000000000000       29.947325190804    
  6.4000000000000       17.459746390598    
  6.8000000000000       22.519767198843    
  7.2000000000000       17.498358017823    
  7.6000000000000       2.5080721651183    
  8.0000000000000       7.4946227558701    
  8.4000000000000       35.014692788111    
  8.8000000000000       19.926047984628    
  9.2000000000000       32.489934044416    
  9.6000000000000       32.489680004947    
  10.000000000000       22.538762949766    
  10.400000000000       17.552859000639    
  10.800000000000       29.923995899318    
  11.200000000000       17.563016885825    
  11.600000000000       17.496979992458    
  12.000000000000       9.9496366422491    
  12.400000000000       14.962758644835    
  12.800000000000       24.993864587630    
  13.200000000000       14.930081692034    
  13.600000000000       27.477960811510    
  14.000000000000       32.499983841014    
  14.400000000000       32.437537988759    
  14.800000000000       10.010238721543    
  15.200000000000       15.026551367144    
  15.600000000000       12.470289544464    
  16.000000000000       2.4733861225905    
  16.400000000000       2.5029107712085    
  16.800000000000       7.4915566284072    
  17.200000000000       14.925052449985    
  17.600000000000       9.9955859191997    
  18.000000000000       4.9922981660498    
  18.400000000000       9.9706354530897    
  18.800000000000       2.5029107712085    
  19.200000000000       4.9834197826901    
  19.600000000000       7.5585235662105    
  20.000000000000       5.0276590956181    
ZONE T= "Xw:     39.5300      Yw:     34.1100      Rw:    0.100000      Zwbot:     13.5000      Zwtop:     14.0000       Specie:  1 "
 0.40000000000000       0.0000000000000    
 0.80000000000000       0.0000000000000    
  1.2000000000000       0.0000000000000    
  1.6000000000000       0.0000000000000    
  2.0000000000000       0.0000000000000    
  2.4000000000000       0.0000000000000    
  2.8000000000000       0.0000000000000    
  3.2000000000000       2.4995411159023    
  3.6000000000000       2.4995411159023    
  4.0000000000000       0.0000000000000    
  4.4000000000000       0.0000000000000    
  4.8000000000000       2.4995411159023    
  5.2000000000000       0.0000000000000    
  5.6000000000000       0.0000000000000    
  6.0000000000000       0.0000000000000    
  6.4000000000000       0.0000000000000    
  6.8000000000000       5.0181198754323    
  7.2000000000000       0.0000000000000    
  7.6000000000000       0.0000000000000    
  8.0000000000000       5.0009949023622    
  8.4000000000000       7.4422112765152    
  8.8000000000000       7.5074252513648    
  9.2000000000000       15.035184873877    
  9.6000000000000       9.9884586712374    
  10.000000000000       2.4807370921717    
  10.400000000000       4.9640750335579    
  10.800000000000       12.459236077222    
  11.200000000000       17.450275406527    
  11.600000000000       25.005840735881    
  12.000000000000       29.985129452143    
  12.400000000000       15.034059825152    
  12.800000000000       15.119532115975    
  13.200000000000       29.958473708471    
  13.600000000000       7.5556466992216    
  14.000000000000       12.543156870568    
  14.400000000000       25.082617643016    
  14.800000000000       7.5198919706781    
  15.200000000000       17.547075259759    
  15.600000000000       22.434605413452    
  16.000000000000       9.9754800295092    
  16.400000000000       14.994356924632    
  16.800000000000       20.031822680258    
  17.200000000000       17.477965622583    
  17.600000000000       10.056334145262    
  18.000000000000       20.046623505917    
  18.400000000000       19.999875248701    
  18.800000000000       27.540939949661    
  19.200000000000       27.589670998609    
  19.600000000000       30.057347152325    
  20.000000000000       19.912446145928    
ZONE T= "Xw:     39.4300      Yw:     34.0100      Rw:    0.100000      Zwbot:     10.5000      Zwtop:     11.1000       Specie:  1 "
 0.40000000000000       7.4674925890433    
 0.80000000000000       12.482885519296    
  1.2000000000000       7.4743160217773    
  1.6000000000000       9.9892958390969    
  2.0000000000000       14.957390120169    
  2.4000000000000       15.033777686078    
  2.8000000000000       9.9578295872633    
  3.2000000000000       15.140957058916    
  3.6000000000000       27.566656060932    
  4.0000000000000       27.544989758257    
  4.4000000000000       20.003814290687    
  4.8000000000000       15.010224037641    
  5.2000000000000       32.397320292843    
  5.6000000000000       17.468237141134    
  6.0000000000000       34.958974759026    
  6.4000000000000       22.535973210559    
  6.8000000000000       30.038152428797    
  7.2000000000000       19.951636412378    
  7.6000000000000       47.434299173145    
  8.0000000000000       24.966141565549    
  8.4000000000000       22.368230533029    
  8.8000000000000       9.9985629777243    
  9.2000000000000       20.006795938793    
  9.6000000000000       32.463426028198    
  10.000000000000       20.009159201037    