 TITLE="TECPLOT input file: Breakthrough Curves" 
 VARIABLES="Time" "Concentrations" 
ZONE T= "Xw:     39.9300      Yw:     22.4100      Rw:    0.100000      Zwbot:     16.5000      Zwtop:     17.0000       Specie:  1 "
  0.0000000000000       0.0000000000000    
  0.0000000000000       0.0000000000000    
  0.0000000000000       0.0000000000000    
  0.0000000000000       0.0000000000000    
  0.0000000000000       0.0000000000000    
  0.0000000000000       0.0000000000000    
  0.0000000000000       0.0000000000000    
  0.0000000000000       0.0000000000000    
  0.0000000000000       0.0000000000000    
  0.0000000000000       0.0000000000000    
  0.0000000000000       0.0000000000000    
  0.0000000000000       0.0000000000000    
  0.0000000000000       0.0000000000000    
  0.0000000000000       0.0000000000000    
  0.0000000000000       0.0000000000000    
  0.0000000000000       0.0000000000000    
  0.0000000000000       0.0000000000000    
  0.0000000000000       0.0000000000000    
  0.0000000000000       0.0000000000000    
  0.0000000000000       0.0000000000000    
  0.0000000000000       0.0000000000000    
  0.0000000000000       0.0000000000000    
  0.0000000000000       0.0000000000000    
  0.0000000000000       0.0000000000000    
  0.0000000000000       0.0000000000000    
  0.0000000000000       0.0000000000000    
  0.0000000000000       0.0000000000000    
  0.0000000000000       0.0000000000000    
  0.0000000000000       0.0000000000000    
  0.0000000000000       0.0000000000000    
  0.0000000000000       0.0000000000000    
  0.0000000000000       0.0000000000000    
  0.0000000000000       0.0000000000000    
  0.0000000000000       0.0000000000000    
  0.0000000000000       0.0000000000000    
  0.0000000000000       0.0000000000000    
  0.0000000000000       0.0000000000000    
  0.0000000000000       0.0000000000000    
  0.0000000000000       0.0000000000000    
  0.0000000000000       0.0000000000000    
  0.0000000000000       0.0000000000000    
  0.0000000000000       0.0000000000000    
  0.0000000000000       0.0000000000000    
  0.0000000000000       0.0000000000000    
  0.0000000000000       0.0000000000000    
  0.0000000000000       0.0000000000000    
  0.0000000000000       0.0000000000000    
  0.0000000000000       0.0000000000000    
  0.0000000000000       0.0000000000000    
  0.0000000000000       0.0000000000000    
ZONE T= "Xw:     39.9300      Yw:     22.4100      Rw:    0.100000      Zwbot:     13.5000      Zwtop:     14.0000       Specie:  1 "
 0.40000000000000       0.0000000000000    
 0.80000000000000       0.0000000000000    
  1.2000000000000       0.0000000000000    
  1.6000000000000       0.0000000000000    
  2.0000000000000       0.0000000000000    
  2.4000000000000       0.0000000000000    
  2.8000000000000       0.0000000000000    
  3.2000000000000       0.0000000000000    
  3.6000000000000       0.0000000000000    
  4.0000000000000       0.0000000000000    
  4.4000000000000       0.0000000000000    
  4.8000000000000       0.0000000000000    
  5.2000000000000       0.0000000000000    
  5.6000000000000       0.0000000000000    
  6.0000000000000       0.0000000000000    
  6.4000000000000       0.0000000000000    
  6.8000000000000       0.0000000000000    
  7.2000000000000       0.0000000000000    
  7.6000000000000       0.0000000000000    
  8.0000000000000       0.0000000000000    
  8.4000000000000       0.0000000000000    
  8.8000000000000       0.0000000000000    
  9.2000000000000       0.0000000000000    
  9.6000000000000       0.0000000000000    
  10.000000000000       0.0000000000000    
  10.400000000000       0.0000000000000    
  10.800000000000       0.0000000000000    
  11.200000000000       0.0000000000000    
  11.600000000000       2.4956836180762    
  12.000000000000       0.0000000000000    
  12.400000000000       0.0000000000000    
  12.800000000000       0.0000000000000    
  13.200000000000       0.0000000000000    
  13.600000000000       2.4782921467041    
  14.000000000000       2.4956836180762    
  14.400000000000       0.0000000000000    
  14.800000000000       2.5158584439011    
  15.200000000000       5.0317168878021    
  15.600000000000       2.5158584439011    
  16.000000000000       0.0000000000000    
  16.400000000000       12.575866193276    
  16.800000000000       5.0282908615727    
  17.200000000000       2.5141454307864    
  17.600000000000       7.5100090345062    
  18.000000000000       5.0286241955923    
  18.400000000000       12.561598126736    
  18.800000000000       2.4864497999944    
  19.200000000000       7.5265202079211    
  19.600000000000       2.5127657516913    
  20.000000000000       5.0246392506943    
ZONE T= "Xw:     39.9300      Yw:     22.3100      Rw:    0.100000      Zwbot:     10.5000      Zwtop:     11.0000       Specie:  1 "
 0.40000000000000       0.0000000000000    
 0.80000000000000       0.0000000000000    
  1.2000000000000       0.0000000000000    
  1.6000000000000       0.0000000000000    
  2.0000000000000       0.0000000000000    
  2.4000000000000       0.0000000000000    
  2.8000000000000       0.0000000000000    
  3.2000000000000       0.0000000000000    
  3.6000000000000       4.9618435954849    
  4.0000000000000       12.404608988712    
  4.4000000000000       0.0000000000000    
  4.8000000000000       2.4809217977425    
  5.2000000000000       12.481109937345    
  5.6000000000000       7.4843296957012    
  6.0000000000000       0.0000000000000    
  6.4000000000000       9.9935604832871    
  6.8000000000000       10.027612788963    
  7.2000000000000       2.4800374572601    
  7.6000000000000       4.9792090411883    
  8.0000000000000       15.050660372201    
  8.4000000000000       15.059978468320    
  8.8000000000000       15.001171891601    
  9.2000000000000       32.505851325768    
  9.6000000000000       19.979788950295    
  10.000000000000       25.015328912464    
  10.400000000000       29.906680597280    
  10.800000000000       32.438710750581    
  11.200000000000       25.015307341604    
  11.600000000000       44.943239912604    
  12.000000000000       35.025345553971    
  12.400000000000       47.543158530708    
  12.800000000000       32.568791291432    
  13.200000000000       39.906194977729    
  13.600000000000       25.024245941211    
  14.000000000000       7.5058399309158    
  14.400000000000       9.9971677331800    
  14.800000000000       12.428092355330    
  15.200000000000       12.428616508500    
  15.600000000000       7.4922322897430    
  16.000000000000       14.986632009728    
  16.400000000000       32.410840058980    
  16.800000000000       17.564499194749    
  17.200000000000       4.9891401999830    
  17.600000000000       7.5059424620162    
  18.000000000000       5.0125883602720    
  18.400000000000       15.100111039692    
  18.800000000000       2.5269447983926    
  19.200000000000       2.5031778143571    
  19.600000000000       2.5236204700402    
  20.000000000000       0.0000000000000    
ZONE T= "Xw:     40.0300      Yw:     22.4100      Rw:    0.100000      Zwbot:     7.60000      Zwtop:     8.10000       Specie:  1 "
 0.40000000000000       0.0000000000000    
 0.80000000000000       0.0000000000000    
  1.2000000000000       0.0000000000000    
  1.6000000000000       0.0000000000000    
  2.0000000000000       0.0000000000000    
  2.4000000000000       0.0000000000000    
  2.8000000000000       0.0000000000000    
  3.2000000000000       0.0000000000000    
  3.6000000000000       0.0000000000000    
  4.0000000000000       0.0000000000000    
  4.4000000000000       9.9829687503893    
  4.8000000000000       7.4920429123267    
  5.2000000000000       12.469975333072    
  5.6000000000000       19.980990621195    
  6.0000000000000       7.5176696838529    
  6.4000000000000       17.555930044203    
  6.8000000000000       32.393301064164    
  7.2000000000000       17.475457000414    
  7.6000000000000       34.994965713338    
  8.0000000000000       52.406482703933    
  8.4000000000000       57.374282207743    
  8.8000000000000       37.625519130911    
  9.2000000000000       62.526496853064    
  9.6000000000000       42.543070592138    
  10.000000000000       54.994771401137    
  10.400000000000       70.024743560479    
  10.800000000000       69.886030981946    
  11.200000000000       35.114887089445    
  11.600000000000       42.577841733285    
  12.000000000000       12.469066949937    
  12.400000000000       47.584529150676    
  12.800000000000       39.982342798791    
  13.200000000000       32.421480995470    
  13.600000000000       15.018228695369    
  14.000000000000       24.998662098034    
  14.400000000000       24.985286111661    
  14.800000000000       24.975435582560    
  15.200000000000       7.4745786277225    
  15.600000000000       4.9951927283779    
  16.000000000000       22.470326500843    
  16.400000000000       17.528081571297    
  16.800000000000       7.5534927302188    
  17.200000000000       15.009816563740    
  17.600000000000       5.0073864207133    
  18.000000000000       17.550402772242    
  18.400000000000       17.567699721955    
  18.800000000000       4.9947817235628    
  19.200000000000       7.5688218774604    
  19.600000000000       4.9449131413106    
  20.000000000000       0.0000000000000    
ZONE T= "Xw:     39.9300      Yw:     22.4100      Rw:    0.100000      Zwbot:     4.50000      Zwtop:     5.00000       Specie:  1 "
 0.40000000000000       0.0000000000000    
 0.80000000000000       0.0000000000000    
  1.2000000000000       0.0000000000000    
  1.6000000000000       0.0000000000000    
  2.0000000000000       0.0000000000000    
  2.4000000000000       0.0000000000000    
  2.8000000000000       0.0000000000000    
  3.2000000000000       0.0000000000000    
  3.6000000000000       0.0000000000000    
  4.0000000000000       2.4908763154379    
  4.4000000000000       2.4908763154379    
  4.8000000000000       4.9817526308758    
  5.2000000000000       0.0000000000000    
  5.6000000000000       14.971552878428    
  6.0000000000000       20.012181396967    
  6.4000000000000       25.054217407650    
  6.8000000000000       24.985642735833    
  7.2000000000000       45.160626646654    
  7.6000000000000       72.463630091935    
  8.0000000000000       47.712071801387    
  8.4000000000000       65.045665053307    
  8.8000000000000       42.486998495934    
  9.2000000000000       55.004017228124    
  9.6000000000000       55.012800074206    
  10.000000000000       40.000231374957    
  10.400000000000       27.557428535416    
  10.800000000000       30.109017038918    
  11.200000000000       32.510343394373    
  11.600000000000       22.556235371414    
  12.000000000000       12.506913581505    
  12.400000000000       22.470866422022    
  12.800000000000       17.424517078526    
  13.200000000000       14.978957771193    
  13.600000000000       47.553569954318    
  14.000000000000       15.037545392362    
  14.400000000000       22.462233233353    
  14.800000000000       7.4551594478077    
  15.200000000000       9.9523860130334    
  15.600000000000       12.484473295178    
  16.000000000000       2.4847387969876    
  16.400000000000       4.9847939487753    
  16.800000000000       22.494360205922    
  17.200000000000       12.490292795079    
  17.600000000000       14.951170243730    
  18.000000000000       7.5110666483828    
  18.400000000000       2.5187858724682    
  18.800000000000       0.0000000000000    
  19.200000000000       12.602928139227    
  19.600000000000       2.5232852609114    
  20.000000000000       0.0000000000000    
ZONE T= "Xw:     39.8300      Yw:     28.4100      Rw:    0.100000      Zwbot:     16.5000      Zwtop:     17.0000       Specie:  1 "
 0.40000000000000       0.0000000000000    
 0.80000000000000       0.0000000000000    
  1.2000000000000       0.0000000000000    
  1.6000000000000       0.0000000000000    
  2.0000000000000       0.0000000000000    
  2.4000000000000       0.0000000000000    
  2.8000000000000       0.0000000000000    
  3.2000000000000       0.0000000000000    
  3.6000000000000       0.0000000000000    
  4.0000000000000       0.0000000000000    
  4.4000000000000       2.4884742875030    
  4.8000000000000       2.5324622710947    
  5.2000000000000       0.0000000000000    
  5.6000000000000       0.0000000000000    
  6.0000000000000       0.0000000000000    
  6.4000000000000       0.0000000000000    
  6.8000000000000       4.9769485750061    
  7.2000000000000       0.0000000000000    
  7.6000000000000       2.5058263757994    
  8.0000000000000       2.5058412787595    
  8.4000000000000       10.026791494760    
  8.8000000000000       15.015478391280    
  9.2000000000000       19.913765058933    
  9.6000000000000       19.787885974560    
  10.000000000000       12.499132281105    
  10.400000000000       22.548425619491    
  10.800000000000       12.467955915305    
  11.200000000000       20.032710832573    
  11.600000000000       7.4458678368086    
  12.000000000000       22.462328054398    
  12.400000000000       19.913649875034    
  12.800000000000       22.450429261943    
  13.200000000000       12.495666351536    
  13.600000000000       25.030369241298    
  14.000000000000       12.464223809632    
  14.400000000000       20.033151299013    
  14.800000000000       25.006334129260    
  15.200000000000       30.125289459102    
  15.600000000000       20.054643103387    
  16.000000000000       12.478100476776    
  16.400000000000       27.499877292087    
  16.800000000000       17.470542402960    
  17.200000000000       7.5016390174095    
  17.600000000000       15.003157021773    
  18.000000000000       15.030523357671    
  18.400000000000       12.546457318583    
  18.800000000000       25.022527271841    
  19.200000000000       30.075632061905    
  19.600000000000       42.475879553099    
  20.000000000000       17.419860718569    
ZONE T= "Xw:     39.9300      Yw:     28.4100      Rw:    0.100000      Zwbot:     13.5000      Zwtop:     14.0000       Specie:  1 "
 0.40000000000000       0.0000000000000    
 0.80000000000000       0.0000000000000    
  1.2000000000000       0.0000000000000    
  1.6000000000000       0.0000000000000    
  2.0000000000000       0.0000000000000    
  2.4000000000000       0.0000000000000    
  2.8000000000000       0.0000000000000    
  3.2000000000000       0.0000000000000    
  3.6000000000000       0.0000000000000    
  4.0000000000000       0.0000000000000    
  4.4000000000000       0.0000000000000    
  4.8000000000000       0.0000000000000    
  5.2000000000000       0.0000000000000    
  5.6000000000000       0.0000000000000    
  6.0000000000000       0.0000000000000    
  6.4000000000000       0.0000000000000    
  6.8000000000000       0.0000000000000    
  7.2000000000000       0.0000000000000    
  7.6000000000000       0.0000000000000    
  8.0000000000000       0.0000000000000    
  8.4000000000000       0.0000000000000    
  8.8000000000000       4.9722905779809    
  9.2000000000000       0.0000000000000    
  9.6000000000000       2.4861452889905    
  10.000000000000       7.4584358669714    
  10.400000000000       2.4861452889905    
  10.800000000000       0.0000000000000    
  11.200000000000       0.0000000000000    
  11.600000000000       0.0000000000000    
  12.000000000000       2.4861452889905    
  12.400000000000       2.4861452889905    
  12.800000000000       0.0000000000000    
  13.200000000000       2.4861452889905    
  13.600000000000       0.0000000000000    
  14.000000000000       0.0000000000000    
  14.400000000000       0.0000000000000    
  14.800000000000       0.0000000000000    
  15.200000000000       0.0000000000000    
  15.600000000000       0.0000000000000    
  16.000000000000       0.0000000000000    
  16.400000000000       0.0000000000000    
  16.800000000000       0.0000000000000    
  17.200000000000       0.0000000000000    
  17.600000000000       0.0000000000000    
  18.000000000000       0.0000000000000    
  18.400000000000       0.0000000000000    
  18.800000000000       0.0000000000000    
  19.200000000000       0.0000000000000    
  19.600000000000       0.0000000000000    
  20.000000000000       0.0000000000000    
ZONE T= "Xw:     39.8300      Yw:     28.4100      Rw:    0.100000      Zwbot:     10.6000      Zwtop:     11.2000       Specie:  1 "
 0.40000000000000       0.0000000000000    
 0.80000000000000       5.0385816136685    
  1.2000000000000       0.0000000000000    
  1.6000000000000       0.0000000000000    
  2.0000000000000       0.0000000000000    
  2.4000000000000       0.0000000000000    
  2.8000000000000       2.5050065135944    
  3.2000000000000       0.0000000000000    
  3.6000000000000       7.5033894402485    
  4.0000000000000       20.026265905100    
  4.4000000000000       17.519716364803    
  4.8000000000000       22.508619062905    
  5.2000000000000       12.463806618785    
  5.6000000000000       2.4989111019105    
  6.0000000000000       10.009298908948    
  6.4000000000000       5.0031618938992    
  6.8000000000000       17.514673942741    
  7.2000000000000       12.575903488645    
  7.6000000000000       22.474001721353    
  8.0000000000000       34.978762426424    
  8.4000000000000       37.683898170385    
  8.8000000000000       50.151438174146    
  9.2000000000000       42.703185087354    
  9.6000000000000       30.093147365689    
  10.000000000000       17.565385452911    
  10.400000000000       55.103236531054    
  10.800000000000       47.355405374633    
  11.200000000000       30.064599882392    
  11.600000000000       17.493811865293    
  12.000000000000       25.266180499677    
  12.400000000000       27.535389692958    
  12.800000000000       40.175085383966    
  13.200000000000       17.564446846214    
  13.600000000000       15.042232446948    
  14.000000000000       22.579277809722    
  14.400000000000       12.471757858656    
  14.800000000000       15.032251775471    
  15.200000000000       14.961641318704    
  15.600000000000       25.034812488995    
  16.000000000000       7.5027687630138    
  16.400000000000       15.050364883150    
  16.800000000000       2.4973485837824    
  17.200000000000       9.9233370881096    
  17.600000000000       2.5025213203742    
  18.000000000000       2.4633214661351    
  18.400000000000       0.0000000000000    
  18.800000000000       0.0000000000000    
  19.200000000000       0.0000000000000    
  19.600000000000       2.5133225940746    
  20.000000000000       2.5133225940746    
ZONE T= "Xw:     39.8300      Yw:     28.4100      Rw:    0.100000      Zwbot:     7.60000      Zwtop:     8.30000       Specie:  1 "
 0.40000000000000       0.0000000000000    
 0.80000000000000       0.0000000000000    
  1.2000000000000       0.0000000000000    
  1.6000000000000       0.0000000000000    
  2.0000000000000       0.0000000000000    
  2.4000000000000       0.0000000000000    
  2.8000000000000       2.5253829423479    
  3.2000000000000       5.0507658846958    
  3.6000000000000       7.5772333306397    
  4.0000000000000       15.201149132853    
  4.4000000000000       12.648651907524    
  4.8000000000000       10.059612047145    
  5.2000000000000       25.210607790268    
  5.6000000000000       20.006772525864    
  6.0000000000000       10.096114593162    
  6.4000000000000       30.299104946876    
  6.8000000000000       30.019150471561    
  7.2000000000000       50.007678076019    
  7.6000000000000       32.498655947972    
  8.0000000000000       27.639730576384    
  8.4000000000000       27.620191868069    
  8.8000000000000       25.122221859878    
  9.2000000000000       45.130848649114    
  9.6000000000000       29.864235222992    
  10.000000000000       30.158055379847    
  10.400000000000       30.200737103559    
  10.800000000000       20.102338180933    
  11.200000000000       20.178868550536    
  11.600000000000       25.117426162301    
  12.000000000000       70.370006807334    
  12.400000000000       45.246530192706    
  12.800000000000       55.134064805746    
  13.200000000000       62.745476678302    
  13.600000000000       45.241950126512    
  14.000000000000       42.725191561455    
  14.400000000000       37.521865232572    
  14.800000000000       37.537992373367    
  15.200000000000       12.474685070093    
  15.600000000000       15.055316288736    
  16.000000000000       12.385476466263    
  16.400000000000       25.178063789555    
  16.800000000000       15.009501092737    
  17.200000000000       32.710504733233    
  17.600000000000       30.089383308150    
  18.000000000000       30.081691058852    
  18.400000000000       20.049084232520    
  18.800000000000       37.844984393422    
  19.200000000000       40.191004234276    
  19.600000000000       17.428794849648    
  20.000000000000       15.078399281877    
ZONE T= "Xw:     39.8300      Yw:     28.5100      Rw:    0.100000      Zwbot:     4.50000      Zwtop:     5.00000       Specie:  1 "
 0.40000000000000       47.606497043621    
 0.80000000000000       12.565908469726    
  1.2000000000000       12.421736223333    
  1.6000000000000       20.098735904579    
  2.0000000000000       17.489025750726    
  2.4000000000000       20.015948600481    
  2.8000000000000       37.472268222142    
  3.2000000000000       52.419704884215    
  3.6000000000000       64.980665084354    
  4.0000000000000       64.908190365395    
  4.4000000000000       62.526719689818    
  4.8000000000000       29.832047651030    
  5.2000000000000       34.973275994198    
  5.6000000000000       29.965902929212    
  6.0000000000000       32.479484656308    
  6.4000000000000       22.397641593881    
  6.8000000000000       42.704081234105    
  7.2000000000000       25.040228428418    
  7.6000000000000       25.175346814417    
  8.0000000000000       20.009911646202    
  8.4000000000000       9.9556696328802    
  8.8000000000000       22.473578574217    
  9.2000000000000       37.455650372456    
  9.6000000000000       32.595791354049    
  10.000000000000       25.209416883947    
  10.400000000000       37.534411441078    
  10.800000000000       37.537795307469    
  11.200000000000       20.027523019620    
  11.600000000000       25.026780874356    
  12.000000000000       22.469139858749    
  12.400000000000       22.534568985782    
  12.800000000000       10.041500772239    
  13.200000000000       5.0349359561295    
  13.600000000000       10.084608068153    
  14.000000000000       12.444363304078    
  14.400000000000       12.469822200950    
  14.800000000000       2.4798068562758    
  15.200000000000       7.5966124018758    
  15.600000000000       5.0644082679172    
  16.000000000000       0.0000000000000    
  16.400000000000       0.0000000000000    
  16.800000000000       0.0000000000000    
  17.200000000000       0.0000000000000    
  17.600000000000       0.0000000000000    
  18.000000000000       0.0000000000000    
  18.400000000000       0.0000000000000    
  18.800000000000       0.0000000000000    
  19.200000000000       0.0000000000000    
  19.600000000000       0.0000000000000    
  20.000000000000       0.0000000000000    
ZONE T= "Xw:     39.5300      Yw:     34.0100      Rw:    0.100000      Zwbot:     16.7000      Zwtop:     17.3000       Specie:  1 "
 0.40000000000000       0.0000000000000    
 0.80000000000000       2.4947237585521    
  1.2000000000000       0.0000000000000    
  1.6000000000000       2.4947237585521    
  2.0000000000000       0.0000000000000    
  2.4000000000000       7.4919618158874    
  2.8000000000000       4.9901605810466    
  3.2000000000000       4.9382655031005    
  3.6000000000000       9.9739482607484    
  4.0000000000000       4.9996098883746    
  4.4000000000000       15.027133292509    
  4.8000000000000       7.5002488994712    
  5.2000000000000       17.327494390774    
  5.6000000000000       0.0000000000000    
  6.0000000000000       7.4040335489454    
  6.4000000000000       0.0000000000000    
  6.8000000000000       5.0130565032040    
  7.2000000000000       27.498964979303    
  7.6000000000000       10.045000675171    
  8.0000000000000       15.031896762265    
  8.4000000000000       22.467163588877    
  8.8000000000000       24.943052026543    
  9.2000000000000       22.462842697184    
  9.6000000000000       20.088018319265    
  10.000000000000       15.093357265741    
  10.400000000000       17.515524006971    
  10.800000000000       14.957219440056    
  11.200000000000       4.9988270883750    
  11.600000000000       14.946113089620    
  12.000000000000       24.942947187126    
  12.400000000000       44.969986502956    
  12.800000000000       29.966191296526    
  13.200000000000       14.930127649537    
  13.600000000000       19.857934179623    
  14.000000000000       2.4749414651249    
  14.400000000000       17.430025505443    
  14.800000000000       12.567989644438    
  15.200000000000       12.439410697801    
  15.600000000000       9.9635608546342    
  16.000000000000       14.968541533037    
  16.400000000000       34.960931596442    
  16.800000000000       7.5730946125571    
  17.200000000000       5.0034667685463    
  17.600000000000       5.0328575547924    
  18.000000000000       15.069867131553    
  18.400000000000       2.5351411344189    
  18.800000000000       2.5157669285456    
  19.200000000000       5.0315338570913    
  19.600000000000       0.0000000000000    
  20.000000000000       5.0237656401816    
ZONE T= "Xw:     39.5300      Yw:     34.1100      Rw:    0.100000      Zwbot:     13.5000      Zwtop:     14.0000       Specie:  1 "
 0.40000000000000       0.0000000000000    
 0.80000000000000       0.0000000000000    
  1.2000000000000       0.0000000000000    
  1.6000000000000       0.0000000000000    
  2.0000000000000       0.0000000000000    
  2.4000000000000       0.0000000000000    
  2.8000000000000       0.0000000000000    
  3.2000000000000       0.0000000000000    
  3.6000000000000       2.5016201148665    
  4.0000000000000       5.0169137695508    
  4.4000000000000       2.5016201148665    
  4.8000000000000       12.442271657152    
  5.2000000000000       7.5253706543262    
  5.6000000000000       7.4932206496984    
  6.0000000000000       2.5159130022028    
  6.4000000000000       2.5115242163216    
  6.8000000000000       12.376784063616    
  7.2000000000000       7.4712578628446    
  7.6000000000000       12.467831547120    
  8.0000000000000       12.468072466007    
  8.4000000000000       14.936378965925    
  8.8000000000000       12.514937344241    
  9.2000000000000       7.5735469499160    
  9.6000000000000       10.006998340407    
  10.000000000000       9.8949007860176    
  10.400000000000       22.464017233584    
  10.800000000000       17.459532114969    
  11.200000000000       15.018898023126    
  11.600000000000       10.041125095756    
  12.000000000000       12.406076688504    
  12.400000000000       2.4904302494246    
  12.800000000000       25.023985510977    
  13.200000000000       24.930743715191    
  13.600000000000       39.944282591952    
  14.000000000000       20.058980121080    
  14.400000000000       22.506881467647    
  14.800000000000       15.041553028223    
  15.200000000000       17.451970437329    
  15.600000000000       14.993457050606    
  16.000000000000       22.378906437808    
  16.400000000000       17.493707163468    
  16.800000000000       24.912138610364    
  17.200000000000       27.535893260260    
  17.600000000000       19.880397205476    
  18.000000000000       17.490064543411    
  18.400000000000       7.4327445648447    
  18.800000000000       19.909826905719    
  19.200000000000       20.032743088763    
  19.600000000000       2.4776079259465    
  20.000000000000       12.495521587846    
ZONE T= "Xw:     39.4300      Yw:     34.0100      Rw:    0.100000      Zwbot:     10.5000      Zwtop:     11.1000       Specie:  1 "
 0.40000000000000       14.852705792348    
 0.80000000000000       4.9741140962244    
  1.2000000000000       27.359232468483    
  1.6000000000000       19.857097674424    
  2.0000000000000       14.935340580838    
  2.4000000000000       7.5141066425446    
  2.8000000000000       27.319962667464    
  3.2000000000000       32.351690273905    
  3.6000000000000       5.0238957831188    
  4.0000000000000       10.083158478580    
  4.4000000000000       15.071181429522    
  4.8000000000000       24.925216794713    
  5.2000000000000       22.448701150817    
  5.6000000000000       40.069012525702    
  6.0000000000000       22.633712665811    
  6.4000000000000       35.090806960686    
  6.8000000000000       42.583145863026    
  7.2000000000000       57.535597621504    
  7.6000000000000       40.042174294053    
  8.0000000000000       39.911504661764    
  8.4000000000000       59.867823161485    
  8.8000000000000       32.491564784147    
  9.2000000000000       54.867160418876    
  9.6000000000000       35.015469694543    
  10.000000000000       32.525634937589    