 TITLE="TECPLOT input file: Breakthrough Curves" 
 VARIABLES="Time" "Concentrations" 
ZONE T= "Xw:     39.9300      Yw:     22.4100      Rw:    0.100000      Zwbot:     16.5000      Zwtop:     17.0000       Specie:  1 "
 0.40000000000000       0.0000000000000    
 0.80000000000000       0.0000000000000    
  1.2000000000000       0.0000000000000    
  1.6000000000000       0.0000000000000    
  2.0000000000000       0.0000000000000    
  2.4000000000000       0.0000000000000    
  2.8000000000000       0.0000000000000    
  3.2000000000000       0.0000000000000    
  3.6000000000000       0.0000000000000    
  4.0000000000000       0.0000000000000    
  4.4000000000000       0.0000000000000    
  4.8000000000000       0.0000000000000    
  5.2000000000000       0.0000000000000    
  5.6000000000000       0.0000000000000    
  6.0000000000000       0.0000000000000    
  6.4000000000000       0.0000000000000    
  6.8000000000000       0.0000000000000    
  7.2000000000000       0.0000000000000    
  7.6000000000000       0.0000000000000    
  8.0000000000000       0.0000000000000    
  8.4000000000000       0.0000000000000    
  8.8000000000000       0.0000000000000    
  9.2000000000000       0.0000000000000    
  9.6000000000000       0.0000000000000    
  10.000000000000       0.0000000000000    
  10.400000000000       0.0000000000000    
  10.800000000000       0.0000000000000    
  11.200000000000       0.0000000000000    
  11.600000000000       0.0000000000000    
  12.000000000000       0.0000000000000    
  12.400000000000       0.0000000000000    
  12.800000000000       0.0000000000000    
  13.200000000000       0.0000000000000    
  13.600000000000       0.0000000000000    
  14.000000000000       0.0000000000000    
  14.400000000000       0.0000000000000    
  14.800000000000       0.0000000000000    
  15.200000000000       0.0000000000000    
  15.600000000000       0.0000000000000    
  16.000000000000       0.0000000000000    
  16.400000000000       0.0000000000000    
  16.800000000000       0.0000000000000    
  17.200000000000       9.9685447341924    
  17.600000000000       9.9829077082923    
  18.000000000000       0.0000000000000    
  18.400000000000       2.4849546964981    
  18.800000000000       0.0000000000000    
  19.200000000000       0.0000000000000    
  19.600000000000       2.4993176705980    
  20.000000000000       4.9986353411961    
ZONE T= "Xw:     39.9300      Yw:     22.4100      Rw:    0.100000      Zwbot:     13.5000      Zwtop:     14.0000       Specie:  1 "
 0.40000000000000       0.0000000000000    
 0.80000000000000       0.0000000000000    
  1.2000000000000       0.0000000000000    
  1.6000000000000       0.0000000000000    
  2.0000000000000       0.0000000000000    
  2.4000000000000       0.0000000000000    
  2.8000000000000       0.0000000000000    
  3.2000000000000       0.0000000000000    
  3.6000000000000       0.0000000000000    
  4.0000000000000       0.0000000000000    
  4.4000000000000       0.0000000000000    
  4.8000000000000       0.0000000000000    
  5.2000000000000       0.0000000000000    
  5.6000000000000       0.0000000000000    
  6.0000000000000       0.0000000000000    
  6.4000000000000       0.0000000000000    
  6.8000000000000       0.0000000000000    
  7.2000000000000       0.0000000000000    
  7.6000000000000       0.0000000000000    
  8.0000000000000       0.0000000000000    
  8.4000000000000       0.0000000000000    
  8.8000000000000       0.0000000000000    
  9.2000000000000       0.0000000000000    
  9.6000000000000       0.0000000000000    
  10.000000000000       0.0000000000000    
  10.400000000000       0.0000000000000    
  10.800000000000       0.0000000000000    
  11.200000000000       0.0000000000000    
  11.600000000000       0.0000000000000    
  12.000000000000       5.0034252002743    
  12.400000000000       7.5051378004114    
  12.800000000000       2.5017126001371    
  13.200000000000       7.5051378004114    
  13.600000000000       2.5017126001371    
  14.000000000000       0.0000000000000    
  14.400000000000       5.0034252002743    
  14.800000000000       2.5017126001371    
  15.200000000000       0.0000000000000    
  15.600000000000       0.0000000000000    
  16.000000000000       0.0000000000000    
  16.400000000000       2.4804665516070    
  16.800000000000       0.0000000000000    
  17.200000000000       0.0000000000000    
  17.600000000000       0.0000000000000    
  18.000000000000       2.5031067162187    
  18.400000000000       0.0000000000000    
  18.800000000000       12.589463476027    
  19.200000000000       2.4801952213779    
  19.600000000000       7.5173608944257    
  20.000000000000       0.0000000000000    
ZONE T= "Xw:     39.9300      Yw:     22.3100      Rw:    0.100000      Zwbot:     10.5000      Zwtop:     11.0000       Specie:  1 "
 0.40000000000000       0.0000000000000    
 0.80000000000000       0.0000000000000    
  1.2000000000000       0.0000000000000    
  1.6000000000000       0.0000000000000    
  2.0000000000000       0.0000000000000    
  2.4000000000000       0.0000000000000    
  2.8000000000000       0.0000000000000    
  3.2000000000000       0.0000000000000    
  3.6000000000000       0.0000000000000    
  4.0000000000000       2.5196116706381    
  4.4000000000000       0.0000000000000    
  4.8000000000000       0.0000000000000    
  5.2000000000000       4.9554670418197    
  5.6000000000000       5.0115739296171    
  6.0000000000000       19.942755200615    
  6.4000000000000       2.4909533289896    
  6.8000000000000       15.045375778409    
  7.2000000000000       22.588368127110    
  7.6000000000000       0.0000000000000    
  8.0000000000000       15.000023539731    
  8.4000000000000       2.5083223715415    
  8.8000000000000       24.968846531351    
  9.2000000000000       14.980275086000    
  9.6000000000000       24.938449249756    
  10.000000000000       32.447817483535    
  10.400000000000       32.455033332703    
  10.800000000000       34.982944789461    
  11.200000000000       22.556320224456    
  11.600000000000       19.983962223486    
  12.000000000000       15.006472734518    
  12.400000000000       14.957861388133    
  12.800000000000       12.551861642101    
  13.200000000000       30.039820702773    
  13.600000000000       35.049774011242    
  14.000000000000       32.444394359647    
  14.400000000000       7.5356372005214    
  14.800000000000       2.5097268087620    
  15.200000000000       12.551293910078    
  15.600000000000       4.9783492917606    
  16.000000000000       7.4955496660841    
  16.400000000000       12.504880091702    
  16.800000000000       12.421752462630    
  17.200000000000       14.941068862025    
  17.600000000000       4.9655441033679    
  18.000000000000       9.9404850743004    
  18.400000000000       7.4789990260050    
  18.800000000000       0.0000000000000    
  19.200000000000       4.9750930753616    
  19.600000000000       12.430731517247    
  20.000000000000       0.0000000000000    
ZONE T= "Xw:     40.0300      Yw:     22.4100      Rw:    0.100000      Zwbot:     7.60000      Zwtop:     8.10000       Specie:  1 "
 0.40000000000000       0.0000000000000    
 0.80000000000000       0.0000000000000    
  1.2000000000000       0.0000000000000    
  1.6000000000000       0.0000000000000    
  2.0000000000000       0.0000000000000    
  2.4000000000000       0.0000000000000    
  2.8000000000000       0.0000000000000    
  3.2000000000000       0.0000000000000    
  3.6000000000000       0.0000000000000    
  4.0000000000000       2.4993176705980    
  4.4000000000000       15.003621735425    
  4.8000000000000       32.501073796339    
  5.2000000000000       9.9394009002687    
  5.6000000000000       5.0350794642298    
  6.0000000000000       17.474338645223    
  6.4000000000000       24.978713038703    
  6.8000000000000       7.4818582487468    
  7.2000000000000       9.9808840239590    
  7.6000000000000       22.506895823771    
  8.0000000000000       27.371687632893    
  8.4000000000000       22.597902948723    
  8.8000000000000       52.575723723559    
  9.2000000000000       57.504334035491    
  9.6000000000000       37.573704756811    
  10.000000000000       50.067612049243    
  10.400000000000       42.479658887770    
  10.800000000000       60.075206883358    
  11.200000000000       59.899645055674    
  11.600000000000       50.050980861385    
  12.000000000000       67.627331340108    
  12.400000000000       52.566517442042    
  12.800000000000       12.469296594616    
  13.200000000000       20.041841588804    
  13.600000000000       29.987847372623    
  14.000000000000       12.453645179015    
  14.400000000000       17.550698893102    
  14.800000000000       19.967599989023    
  15.200000000000       12.504604677780    
  15.600000000000       47.407523297388    
  16.000000000000       27.478196285191    
  16.400000000000       17.568105174081    
  16.800000000000       20.011258869541    
  17.200000000000       22.540335812871    
  17.600000000000       12.453363379267    
  18.000000000000       7.4419073328520    
  18.400000000000       7.4622014241467    
  18.800000000000       19.949518289301    
  19.200000000000       2.4820869059711    
  19.600000000000       7.4692621813125    
  20.000000000000       2.4878576047433    
ZONE T= "Xw:     39.9300      Yw:     22.4100      Rw:    0.100000      Zwbot:     4.50000      Zwtop:     5.00000       Specie:  1 "
 0.40000000000000       0.0000000000000    
 0.80000000000000       0.0000000000000    
  1.2000000000000       0.0000000000000    
  1.6000000000000       0.0000000000000    
  2.0000000000000       0.0000000000000    
  2.4000000000000       0.0000000000000    
  2.8000000000000       2.5073715079388    
  3.2000000000000       0.0000000000000    
  3.6000000000000       2.5073715079388    
  4.0000000000000       0.0000000000000    
  4.4000000000000       15.010512920876    
  4.8000000000000       4.9997346993575    
  5.2000000000000       39.993803615150    
  5.6000000000000       22.627834356611    
  6.0000000000000       25.111171213699    
  6.4000000000000       7.5067017762601    
  6.8000000000000       14.982242640736    
  7.2000000000000       47.350464235196    
  7.6000000000000       29.918043616112    
  8.0000000000000       29.841496437852    
  8.4000000000000       37.394602742923    
  8.8000000000000       34.896985340712    
  9.2000000000000       29.958895589326    
  9.6000000000000       30.026270316281    
  10.000000000000       47.521904199724    
  10.400000000000       27.576197807532    
  10.800000000000       42.535379730701    
  11.200000000000       37.662651932655    
  11.600000000000       25.077485571748    
  12.000000000000       34.936394729900    
  12.400000000000       54.905293735421    
  12.800000000000       32.524285398604    
  13.200000000000       27.393557120691    
  13.600000000000       22.538196759991    
  14.000000000000       4.9764723999367    
  14.400000000000       22.518125168327    
  14.800000000000       7.5613849370546    
  15.200000000000       20.051521612753    
  15.600000000000       5.0363570274353    
  16.000000000000       4.9763833673042    
  16.400000000000       17.538629147649    
  16.800000000000       4.9631928005438    
  17.200000000000       5.0237454579756    
  17.600000000000       14.897556561594    
  18.000000000000       4.9997181343175    
  18.400000000000       5.0078829582879    
  18.800000000000       2.4759583910828    
  19.200000000000       0.0000000000000    
  19.600000000000       2.4759583910828    
  20.000000000000       2.4759583910828    
ZONE T= "Xw:     39.8300      Yw:     28.4100      Rw:    0.100000      Zwbot:     16.5000      Zwtop:     17.0000       Specie:  1 "
 0.40000000000000       0.0000000000000    
 0.80000000000000       0.0000000000000    
  1.2000000000000       0.0000000000000    
  1.6000000000000       0.0000000000000    
  2.0000000000000       0.0000000000000    
  2.4000000000000       0.0000000000000    
  2.8000000000000       0.0000000000000    
  3.2000000000000       0.0000000000000    
  3.6000000000000       2.4677063034343    
  4.0000000000000       0.0000000000000    
  4.4000000000000       2.4677063034343    
  4.8000000000000       0.0000000000000    
  5.2000000000000       2.4814543515556    
  5.6000000000000       4.9813054101734    
  6.0000000000000       7.4627597617290    
  6.4000000000000       5.0197030704205    
  6.8000000000000       4.9997021172354    
  7.2000000000000       0.0000000000000    
  7.6000000000000       0.0000000000000    
  8.0000000000000       2.4998510586177    
  8.4000000000000       2.5198520118028    
  8.8000000000000       12.433650663628    
  9.2000000000000       7.4661876056466    
  9.6000000000000       12.549057846435    
  10.000000000000       27.488159536969    
  10.400000000000       44.968287702992    
  10.800000000000       5.0263949384546    
  11.200000000000       9.9613817285696    
  11.600000000000       9.9074865440017    
  12.000000000000       12.539561435801    
  12.400000000000       12.448423416395    
  12.800000000000       2.4791727841016    
  13.200000000000       2.4791727841016    
  13.600000000000       17.571892856651    
  14.000000000000       25.253351084770    
  14.400000000000       7.5080822072475    
  14.800000000000       10.041646829947    
  15.200000000000       10.022956719281    
  15.600000000000       27.594829244044    
  16.000000000000       22.472563267048    
  16.400000000000       42.483813234602    
  16.800000000000       20.031470311492    
  17.200000000000       7.5634276066281    
  17.600000000000       2.5264892810209    
  18.000000000000       12.563088253709    
  18.400000000000       20.011882685675    
  18.800000000000       7.5601397935437    
  19.200000000000       7.5588141894881    
  19.600000000000       17.495541868935    
  20.000000000000       2.5140824645045    
ZONE T= "Xw:     39.9300      Yw:     28.4100      Rw:    0.100000      Zwbot:     13.5000      Zwtop:     14.0000       Specie:  1 "
 0.40000000000000       0.0000000000000    
 0.80000000000000       0.0000000000000    
  1.2000000000000       0.0000000000000    
  1.6000000000000       0.0000000000000    
  2.0000000000000       0.0000000000000    
  2.4000000000000       0.0000000000000    
  2.8000000000000       0.0000000000000    
  3.2000000000000       0.0000000000000    
  3.6000000000000       0.0000000000000    
  4.0000000000000       0.0000000000000    
  4.4000000000000       0.0000000000000    
  4.8000000000000       0.0000000000000    
  5.2000000000000       0.0000000000000    
  5.6000000000000       0.0000000000000    
  6.0000000000000       0.0000000000000    
  6.4000000000000       0.0000000000000    
  6.8000000000000       0.0000000000000    
  7.2000000000000       0.0000000000000    
  7.6000000000000       0.0000000000000    
  8.0000000000000       0.0000000000000    
  8.4000000000000       0.0000000000000    
  8.8000000000000       0.0000000000000    
  9.2000000000000       0.0000000000000    
  9.6000000000000       0.0000000000000    
  10.000000000000       0.0000000000000    
  10.400000000000       0.0000000000000    
  10.800000000000       0.0000000000000    
  11.200000000000       0.0000000000000    
  11.600000000000       0.0000000000000    
  12.000000000000       0.0000000000000    
  12.400000000000       0.0000000000000    
  12.800000000000       0.0000000000000    
  13.200000000000       0.0000000000000    
  13.600000000000       0.0000000000000    
  14.000000000000       0.0000000000000    
  14.400000000000       0.0000000000000    
  14.800000000000       0.0000000000000    
  15.200000000000       0.0000000000000    
  15.600000000000       0.0000000000000    
  16.000000000000       2.5085100394886    
  16.400000000000       0.0000000000000    
  16.800000000000       5.0401692586101    
  17.200000000000       5.0181283028204    
  17.600000000000       0.0000000000000    
  18.000000000000       0.0000000000000    
  18.400000000000       0.0000000000000    
  18.800000000000       2.5305509952783    
  19.200000000000       2.4755838160242    
  19.600000000000       0.0000000000000    
  20.000000000000       0.0000000000000    
ZONE T= "Xw:     39.8300      Yw:     28.4100      Rw:    0.100000      Zwbot:     10.6000      Zwtop:     11.2000       Specie:  1 "
 0.40000000000000       0.0000000000000    
 0.80000000000000       0.0000000000000    
  1.2000000000000       0.0000000000000    
  1.6000000000000       0.0000000000000    
  2.0000000000000       2.4857633525053    
  2.4000000000000       4.9859126864340    
  2.8000000000000       9.9814434807997    
  3.2000000000000       12.450101804479    
  3.6000000000000       7.4848061365897    
  4.0000000000000       12.469891276691    
  4.4000000000000       24.902204416141    
  4.8000000000000       27.670310601237    
  5.2000000000000       22.528275381987    
  5.6000000000000       15.048195130681    
  6.0000000000000       35.112405178808    
  6.4000000000000       9.9938924818281    
  6.8000000000000       35.005052652691    
  7.2000000000000       12.530260997386    
  7.6000000000000       27.475412230602    
  8.0000000000000       47.797728625549    
  8.4000000000000       30.043418119711    
  8.8000000000000       22.599153806203    
  9.2000000000000       20.022347594328    
  9.6000000000000       32.602478973423    
  10.000000000000       47.346316643040    
  10.400000000000       35.025039778872    
  10.800000000000       14.973926420092    
  11.200000000000       19.949498410365    
  11.600000000000       7.5059429777010    
  12.000000000000       17.449902529822    
  12.400000000000       10.009659854334    
  12.800000000000       12.450004414726    
  13.200000000000       39.803292336855    
  13.600000000000       19.973746496915    
  14.000000000000       20.055383450215    
  14.400000000000       15.002204699432    
  14.800000000000       14.946869330707    
  15.200000000000       22.613754988385    
  15.600000000000       17.529553732176    
  16.000000000000       7.5668895288225    
  16.400000000000       2.5182408822587    
  16.800000000000       2.4867612597049    
  17.200000000000       14.960598218083    
  17.600000000000       7.4910585282808    
  18.000000000000       9.9715591311823    
  18.400000000000       12.548735430049    
  18.800000000000       7.5316842417208    
  19.200000000000       2.5250709702131    
  19.600000000000       12.517593960208    
  20.000000000000       2.5325074592275    
ZONE T= "Xw:     39.8300      Yw:     28.4100      Rw:    0.100000      Zwbot:     7.60000      Zwtop:     8.30000       Specie:  1 "
 0.40000000000000       0.0000000000000    
 0.80000000000000       0.0000000000000    
  1.2000000000000       0.0000000000000    
  1.6000000000000       0.0000000000000    
  2.0000000000000       0.0000000000000    
  2.4000000000000       0.0000000000000    
  2.8000000000000       10.032247402080    
  3.2000000000000       7.5327119253031    
  3.6000000000000       2.4755015418732    
  4.0000000000000       2.4652712528688    
  4.4000000000000       4.9649508471390    
  4.8000000000000       29.942091949404    
  5.2000000000000       7.4403099475981    
  5.6000000000000       4.9305425057376    
  6.0000000000000       7.4744753676823    
  6.4000000000000       9.9451482893726    
  6.8000000000000       24.830545093465    
  7.2000000000000       22.409477656390    
  7.6000000000000       9.9743205797055    
  8.0000000000000       29.959418171453    
  8.4000000000000       15.008268139263    
  8.8000000000000       22.554726613693    
  9.2000000000000       30.069792323426    
  9.6000000000000       32.570347038227    
  10.000000000000       22.515302658012    
  10.400000000000       39.927587663980    
  10.800000000000       27.499945525136    
  11.200000000000       34.860815136693    
  11.600000000000       25.017838568293    
  12.000000000000       32.664535448522    
  12.400000000000       74.999736070980    
  12.800000000000       57.405065548391    
  13.200000000000       50.021708498847    
  13.600000000000       44.925148119161    
  14.000000000000       42.678181813397    
  14.400000000000       37.700652810068    
  14.800000000000       37.684814537606    
  15.200000000000       45.106325442585    
  15.600000000000       55.175565544309    
  16.000000000000       37.608643631731    
  16.400000000000       27.406079346272    
  16.800000000000       20.093491847918    
  17.200000000000       37.663678116420    
  17.600000000000       42.515335101611    
  18.000000000000       29.955372015446    
  18.400000000000       15.086270431206    
  18.800000000000       35.056376223754    
  19.200000000000       12.422077037156    
  19.600000000000       27.547301520047    
  20.000000000000       7.5440702431835    
ZONE T= "Xw:     39.8300      Yw:     28.5100      Rw:    0.100000      Zwbot:     4.50000      Zwtop:     5.00000       Specie:  1 "
 0.40000000000000       0.0000000000000    
 0.80000000000000       4.9955739193875    
  1.2000000000000       7.4993361549752    
  1.6000000000000       17.512460263288    
  2.0000000000000       24.793013350494    
  2.4000000000000       24.850072623604    
  2.8000000000000       17.411839857144    
  3.2000000000000       32.313114995306    
  3.6000000000000       27.542962213347    
  4.0000000000000       24.968497426010    
  4.4000000000000       14.952219866452    
  4.8000000000000       37.515768887545    
  5.2000000000000       24.929400951886    
  5.6000000000000       65.000131488341    
  6.0000000000000       67.444246883082    
  6.4000000000000       47.376332916787    
  6.8000000000000       42.507636391807    
  7.2000000000000       59.955241634109    
  7.6000000000000       54.947526629243    
  8.0000000000000       57.483205128199    
  8.4000000000000       37.575314089318    
  8.8000000000000       39.843006054968    
  9.2000000000000       47.461456211550    
  9.6000000000000       22.318457156232    
  10.000000000000       14.898832106010    
  10.400000000000       34.872214712365    
  10.800000000000       12.458212663715    
  11.200000000000       7.4376788950884    
  11.600000000000       22.554285177585    
  12.000000000000       10.029452922795    
  12.400000000000       7.4935666645835    
  12.800000000000       7.4630425612310    
  13.200000000000       12.456877020954    
  13.600000000000       12.377227919095    
  14.000000000000       4.9271563030196    
  14.400000000000       4.9802344460314    
  14.800000000000       0.0000000000000    
  15.200000000000       2.5166562945216    
  15.600000000000       10.052847472764    
  16.000000000000       0.0000000000000    
  16.400000000000       0.0000000000000    
  16.800000000000       0.0000000000000    
  17.200000000000       0.0000000000000    
  17.600000000000       0.0000000000000    
  18.000000000000       0.0000000000000    
  18.400000000000       5.0913711929405    
  18.800000000000       5.0913711929405    
  19.200000000000       0.0000000000000    
  19.600000000000       0.0000000000000    
  20.000000000000       0.0000000000000    
ZONE T= "Xw:     39.5300      Yw:     34.0100      Rw:    0.100000      Zwbot:     16.7000      Zwtop:     17.3000       Specie:  1 "
 0.40000000000000       12.430112893346    
 0.80000000000000       0.0000000000000    
  1.2000000000000       2.4860225786691    
  1.6000000000000       4.9720451573383    
  2.0000000000000       7.4580677360074    
  2.4000000000000       2.4860225786691    
  2.8000000000000       2.5007250001111    
  3.2000000000000       5.0014500002222    
  3.6000000000000       2.5150073091049    
  4.0000000000000       5.0300146182098    
  4.4000000000000       7.5163017868887    
  4.8000000000000       15.030307517651    
  5.2000000000000       12.510413427806    
  5.6000000000000       22.360318918329    
  6.0000000000000       14.954526863205    
  6.4000000000000       5.0679665520016    
  6.8000000000000       19.950988750746    
  7.2000000000000       22.530240805657    
  7.6000000000000       22.512279889548    
  8.0000000000000       19.961573936820    
  8.4000000000000       17.486959005542    
  8.8000000000000       19.966309461821    
  9.2000000000000       25.052568706975    
  9.6000000000000       27.482327109462    
  10.000000000000       29.947645931751    
  10.400000000000       9.9427659617417    
  10.800000000000       14.964506283840    
  11.200000000000       9.8874477444325    
  11.600000000000       4.9359109246184    
  12.000000000000       19.962982860685    
  12.400000000000       27.464411354822    
  12.800000000000       12.505467377353    
  13.200000000000       22.236609128722    
  13.600000000000       15.031929083801    
  14.000000000000       17.577083998538    
  14.400000000000       37.581668632366    
  14.800000000000       25.017226738293    
  15.200000000000       24.946704232643    
  15.600000000000       37.380531768393    
  16.000000000000       32.377501875642    
  16.400000000000       44.917034680233    
  16.800000000000       12.510678420571    
  17.200000000000       19.944705354729    
  17.600000000000       24.997736180676    
  18.000000000000       12.580989875546    
  18.400000000000       10.088902985541    
  18.800000000000       9.9771541518084    
  19.200000000000       12.427692731123    
  19.600000000000       2.4741884695130    
  20.000000000000       12.428710595811    
ZONE T= "Xw:     39.5300      Yw:     34.1100      Rw:    0.100000      Zwbot:     13.5000      Zwtop:     14.0000       Specie:  1 "
 0.40000000000000       0.0000000000000    
 0.80000000000000       0.0000000000000    
  1.2000000000000       0.0000000000000    
  1.6000000000000       0.0000000000000    
  2.0000000000000       0.0000000000000    
  2.4000000000000       0.0000000000000    
  2.8000000000000       0.0000000000000    
  3.2000000000000       0.0000000000000    
  3.6000000000000       0.0000000000000    
  4.0000000000000       0.0000000000000    
  4.4000000000000       2.5230461853407    
  4.8000000000000       4.9986229854398    
  5.2000000000000       14.973136864328    
  5.6000000000000       12.488244726125    
  6.0000000000000       2.4755768000991    
  6.4000000000000       2.4696927642097    
  6.8000000000000       2.5080692926936    
  7.2000000000000       2.5046379904788    
  7.6000000000000       0.0000000000000    
  8.0000000000000       12.510925511479    
  8.4000000000000       7.4832413356599    
  8.8000000000000       7.4888560115750    
  9.2000000000000       17.507104288830    
  9.6000000000000       7.5451828573456    
  10.000000000000       17.523610426524    
  10.400000000000       19.883062366896    
  10.800000000000       15.032372597310    
  11.200000000000       17.382376306497    
  11.600000000000       5.0135633066181    
  12.000000000000       17.591814725325    
  12.400000000000       0.0000000000000    
  12.800000000000       7.4218960641067    
  13.200000000000       2.5258588692954    
  13.600000000000       4.9871642039486    
  14.000000000000       10.072129254864    
  14.400000000000       7.5619220807064    
  14.800000000000       5.0576502025209    
  15.200000000000       5.0067947182587    
  15.600000000000       7.4968394985824    
  16.000000000000       7.4339088509949    
  16.400000000000       20.079582111133    
  16.800000000000       14.980371499985    
  17.200000000000       24.903964627706    
  17.600000000000       19.919023625396    
  18.000000000000       14.867529554243    
  18.400000000000       17.419311348942    
  18.800000000000       24.888496838331    
  19.200000000000       27.415968162123    
  19.600000000000       12.427392050741    
  20.000000000000       4.9844747142880    
ZONE T= "Xw:     39.4300      Yw:     34.0100      Rw:    0.100000      Zwbot:     10.5000      Zwtop:     11.1000       Specie:  1 "
 0.40000000000000       44.915234716825    
 0.80000000000000       22.517535852054    
  1.2000000000000       25.135231511446    
  1.6000000000000       20.086796694159    
  2.0000000000000       17.441873952661    
  2.4000000000000       17.537678991713    
  2.8000000000000       7.5363872468276    
  3.2000000000000       14.945931734209    
  3.6000000000000       7.4755531612452    
  4.0000000000000       27.294017019268    
  4.4000000000000       19.964541518142    
  4.8000000000000       20.071770665064    
  5.2000000000000       22.474603099369    
  5.6000000000000       24.849517311431    
  6.0000000000000       27.359879971976    
  6.4000000000000       42.468083338378    
  6.8000000000000       40.092395561969    
  7.2000000000000       40.012041625315    
  7.6000000000000       37.633559522812    
  8.0000000000000       50.091361898343    
  8.4000000000000       45.105424004307    
  8.8000000000000       32.411388672750    
  9.2000000000000       17.479070475016    
  9.6000000000000       45.038408107988    
  10.000000000000       37.618664760059    