 TITLE="TECPLOT input file: Breakthrough Curves" 
 VARIABLES="Time" "Concentrations" 
ZONE T= "Xw:     39.9300      Yw:     22.4100      Rw:    0.100000      Zwbot:     16.5000      Zwtop:     17.0000       Specie:  1 "
 0.40000000000000       0.0000000000000    
 0.80000000000000       0.0000000000000    
  1.2000000000000       0.0000000000000    
  1.6000000000000       0.0000000000000    
  2.0000000000000       0.0000000000000    
  2.4000000000000       0.0000000000000    
  2.8000000000000       0.0000000000000    
  3.2000000000000       0.0000000000000    
  3.6000000000000       0.0000000000000    
  4.0000000000000       0.0000000000000    
  4.4000000000000       0.0000000000000    
  4.8000000000000       0.0000000000000    
  5.2000000000000       0.0000000000000    
  5.6000000000000       0.0000000000000    
  6.0000000000000       0.0000000000000    
  6.4000000000000       0.0000000000000    
  6.8000000000000       0.0000000000000    
  7.2000000000000       0.0000000000000    
  7.6000000000000       0.0000000000000    
  8.0000000000000       0.0000000000000    
  8.4000000000000       0.0000000000000    
  8.8000000000000       0.0000000000000    
  9.2000000000000       0.0000000000000    
  9.6000000000000       0.0000000000000    
  10.000000000000       0.0000000000000    
  10.400000000000       0.0000000000000    
  10.800000000000       0.0000000000000    
  11.200000000000       0.0000000000000    
  11.600000000000       0.0000000000000    
  12.000000000000       0.0000000000000    
  12.400000000000       0.0000000000000    
  12.800000000000       0.0000000000000    
  13.200000000000       0.0000000000000    
  13.600000000000       0.0000000000000    
  14.000000000000       0.0000000000000    
  14.400000000000       0.0000000000000    
  14.800000000000       0.0000000000000    
  15.200000000000       4.9667600634065    
  15.600000000000       0.0000000000000    
  16.000000000000       0.0000000000000    
  16.400000000000       0.0000000000000    
  16.800000000000       2.4967255707507    
  17.200000000000       4.9934511415015    
  17.600000000000       2.4967255707507    
  18.000000000000       4.9934511415015    
  18.400000000000       0.0000000000000    
  18.800000000000       0.0000000000000    
  19.200000000000       0.0000000000000    
  19.600000000000       2.4829337544192    
  20.000000000000       0.0000000000000    
ZONE T= "Xw:     39.9300      Yw:     22.4100      Rw:    0.100000      Zwbot:     13.5000      Zwtop:     14.0000       Specie:  1 "
 0.40000000000000       0.0000000000000    
 0.80000000000000       0.0000000000000    
  1.2000000000000       0.0000000000000    
  1.6000000000000       0.0000000000000    
  2.0000000000000       0.0000000000000    
  2.4000000000000       0.0000000000000    
  2.8000000000000       0.0000000000000    
  3.2000000000000       0.0000000000000    
  3.6000000000000       0.0000000000000    
  4.0000000000000       0.0000000000000    
  4.4000000000000       0.0000000000000    
  4.8000000000000       0.0000000000000    
  5.2000000000000       0.0000000000000    
  5.6000000000000       0.0000000000000    
  6.0000000000000       0.0000000000000    
  6.4000000000000       0.0000000000000    
  6.8000000000000       0.0000000000000    
  7.2000000000000       0.0000000000000    
  7.6000000000000       0.0000000000000    
  8.0000000000000       0.0000000000000    
  8.4000000000000       0.0000000000000    
  8.8000000000000       0.0000000000000    
  9.2000000000000       0.0000000000000    
  9.6000000000000       0.0000000000000    
  10.000000000000       0.0000000000000    
  10.400000000000       0.0000000000000    
  10.800000000000       0.0000000000000    
  11.200000000000       0.0000000000000    
  11.600000000000       0.0000000000000    
  12.000000000000       0.0000000000000    
  12.400000000000       0.0000000000000    
  12.800000000000       2.4713111838446    
  13.200000000000       4.9472226766877    
  13.600000000000       2.5036703462482    
  14.000000000000       5.0073406924964    
  14.400000000000       5.0073406924964    
  14.800000000000       5.0073406924964    
  15.200000000000       4.9795818390913    
  15.600000000000       2.5036703462482    
  16.000000000000       2.5117062266201    
  16.400000000000       2.5117062266201    
  16.800000000000       10.017688670576    
  17.200000000000       4.9681159420290    
  17.600000000000       4.9695756289533    
  18.000000000000       14.976585869310    
  18.400000000000       0.0000000000000    
  18.800000000000       0.0000000000000    
  19.200000000000       7.5200328954936    
  19.600000000000       9.9902315697355    
  20.000000000000       4.9620894183278    
ZONE T= "Xw:     39.9300      Yw:     22.3100      Rw:    0.100000      Zwbot:     10.5000      Zwtop:     11.0000       Specie:  1 "
 0.40000000000000       0.0000000000000    
 0.80000000000000       0.0000000000000    
  1.2000000000000       0.0000000000000    
  1.6000000000000       0.0000000000000    
  2.0000000000000       0.0000000000000    
  2.4000000000000       0.0000000000000    
  2.8000000000000       0.0000000000000    
  3.2000000000000       0.0000000000000    
  3.6000000000000       0.0000000000000    
  4.0000000000000       0.0000000000000    
  4.4000000000000       0.0000000000000    
  4.8000000000000       7.4827884623032    
  5.2000000000000       2.4839174647384    
  5.6000000000000       5.0049424682743    
  6.0000000000000       0.0000000000000    
  6.4000000000000       4.9955203450965    
  6.8000000000000       15.008037014643    
  7.2000000000000       14.972775690871    
  7.6000000000000       10.001878045164    
  8.0000000000000       10.015657019256    
  8.4000000000000       12.428565477501    
  8.8000000000000       22.549669081090    
  9.2000000000000       30.052808735359    
  9.6000000000000       37.524512050725    
  10.000000000000       39.969522497358    
  10.400000000000       30.048190696266    
  10.800000000000       17.471078026892    
  11.200000000000       22.611815942727    
  11.600000000000       19.969591307301    
  12.000000000000       12.453405773133    
  12.400000000000       20.136887587281    
  12.800000000000       35.037649345395    
  13.200000000000       9.9441975152449    
  13.600000000000       0.0000000000000    
  14.000000000000       15.005388456725    
  14.400000000000       24.906290038610    
  14.800000000000       24.915350118719    
  15.200000000000       30.143556201947    
  15.600000000000       12.559490495861    
  16.000000000000       25.091237145613    
  16.400000000000       24.988861265256    
  16.800000000000       29.923394248907    
  17.200000000000       7.5554550845692    
  17.600000000000       12.478525100798    
  18.000000000000       14.951789762878    
  18.400000000000       2.4721321468664    
  18.800000000000       0.0000000000000    
  19.200000000000       0.0000000000000    
  19.600000000000       2.4976272708105    
  20.000000000000       2.4976272708105    
ZONE T= "Xw:     40.0300      Yw:     22.4100      Rw:    0.100000      Zwbot:     7.60000      Zwtop:     8.10000       Specie:  1 "
 0.40000000000000       0.0000000000000    
 0.80000000000000       0.0000000000000    
  1.2000000000000       0.0000000000000    
  1.6000000000000       0.0000000000000    
  2.0000000000000       0.0000000000000    
  2.4000000000000       0.0000000000000    
  2.8000000000000       0.0000000000000    
  3.2000000000000       0.0000000000000    
  3.6000000000000       0.0000000000000    
  4.0000000000000       0.0000000000000    
  4.4000000000000       2.4994354987824    
  4.8000000000000       0.0000000000000    
  5.2000000000000       4.9809988897527    
  5.6000000000000       7.4930614411556    
  6.0000000000000       17.508749422149    
  6.4000000000000       20.039906989017    
  6.8000000000000       12.470018602268    
  7.2000000000000       19.827515599562    
  7.6000000000000       24.956875998498    
  8.0000000000000       39.862698322712    
  8.4000000000000       24.906585172622    
  8.8000000000000       49.940331351520    
  9.2000000000000       55.024503272568    
  9.6000000000000       57.529865364767    
  10.000000000000       39.961928560901    
  10.400000000000       39.975848946443    
  10.800000000000       49.992684742197    
  11.200000000000       37.503873051133    
  11.600000000000       75.077866864144    
  12.000000000000       35.009005899210    
  12.400000000000       34.842678379119    
  12.800000000000       44.909890202142    
  13.200000000000       50.004584744189    
  13.600000000000       42.508603461920    
  14.000000000000       29.932789372310    
  14.400000000000       19.981320484642    
  14.800000000000       10.037721157024    
  15.200000000000       27.481294166837    
  15.600000000000       7.5096968089911    
  16.000000000000       10.003954251127    
  16.400000000000       9.9950747612044    
  16.800000000000       29.996621817415    
  17.200000000000       17.466535214252    
  17.600000000000       4.9967731221798    
  18.000000000000       20.006511125277    
  18.400000000000       9.9880499254869    
  18.800000000000       7.5027293402745    
  19.200000000000       14.951898995070    
  19.600000000000       4.9681822587916    
  20.000000000000       4.9991187549127    
ZONE T= "Xw:     39.9300      Yw:     22.4100      Rw:    0.100000      Zwbot:     4.50000      Zwtop:     5.00000       Specie:  1 "
 0.40000000000000       0.0000000000000    
 0.80000000000000       0.0000000000000    
  1.2000000000000       0.0000000000000    
  1.6000000000000       0.0000000000000    
  2.0000000000000       0.0000000000000    
  2.4000000000000       0.0000000000000    
  2.8000000000000       0.0000000000000    
  3.2000000000000       0.0000000000000    
  3.6000000000000       7.4851727364908    
  4.0000000000000       25.078895587121    
  4.4000000000000       17.542120361329    
  4.8000000000000       12.431118080058    
  5.2000000000000       2.5203753422348    
  5.6000000000000       17.547726539097    
  6.0000000000000       20.076307013093    
  6.4000000000000       15.003991910681    
  6.8000000000000       20.012159357146    
  7.2000000000000       17.495998845998    
  7.6000000000000       20.007526711113    
  8.0000000000000       42.597617837956    
  8.4000000000000       12.524486815977    
  8.8000000000000       50.041479332268    
  9.2000000000000       32.626138949576    
  9.6000000000000       44.969326890858    
  10.000000000000       59.862537237853    
  10.400000000000       94.692835139884    
  10.800000000000       75.025709987284    
  11.200000000000       42.545505874412    
  11.600000000000       42.610703998159    
  12.000000000000       30.156765777125    
  12.400000000000       34.994114943477    
  12.800000000000       9.9825317895390    
  13.200000000000       4.9998032688849    
  13.600000000000       30.054160376241    
  14.000000000000       22.560964971428    
  14.400000000000       7.4610956529695    
  14.800000000000       9.9692568750235    
  15.200000000000       0.0000000000000    
  15.600000000000       19.986872714057    
  16.000000000000       0.0000000000000    
  16.400000000000       22.526457791111    
  16.800000000000       17.456928640284    
  17.200000000000       14.930571168640    
  17.600000000000       25.039751240628    
  18.000000000000       2.4953079723174    
  18.400000000000       2.4934418572495    
  18.800000000000       0.0000000000000    
  19.200000000000       0.0000000000000    
  19.600000000000       5.0346763055221    
  20.000000000000       2.5173381527610    
ZONE T= "Xw:     39.8300      Yw:     28.4100      Rw:    0.100000      Zwbot:     16.5000      Zwtop:     17.0000       Specie:  1 "
 0.40000000000000       0.0000000000000    
 0.80000000000000       0.0000000000000    
  1.2000000000000       0.0000000000000    
  1.6000000000000       0.0000000000000    
  2.0000000000000       0.0000000000000    
  2.4000000000000       0.0000000000000    
  2.8000000000000       0.0000000000000    
  3.2000000000000       0.0000000000000    
  3.6000000000000       0.0000000000000    
  4.0000000000000       2.4737072118730    
  4.4000000000000       0.0000000000000    
  4.8000000000000       4.9474144237460    
  5.2000000000000       14.827469052695    
  5.6000000000000       0.0000000000000    
  6.0000000000000       9.9429029770069    
  6.4000000000000       4.9474144237460    
  6.8000000000000       2.4811521995983    
  7.2000000000000       0.0000000000000    
  7.6000000000000       4.9484475299777    
  8.0000000000000       9.9556650281561    
  8.4000000000000       2.5134005428979    
  8.8000000000000       9.9929214964389    
  9.2000000000000       9.9709582016356    
  9.6000000000000       7.5162832919847    
  10.000000000000       7.4784540664087    
  10.400000000000       12.471775960797    
  10.800000000000       27.453023828642    
  11.200000000000       10.050782292142    
  11.600000000000       10.058916942473    
  12.000000000000       20.182105887709    
  12.400000000000       5.0407069780841    
  12.800000000000       37.266278967281    
  13.200000000000       19.951077985605    
  13.600000000000       12.375229826802    
  14.000000000000       9.9272692292134    
  14.400000000000       7.4842116692522    
  14.800000000000       4.9599779036962    
  15.200000000000       24.891469808854    
  15.600000000000       0.0000000000000    
  16.000000000000       2.4819713276580    
  16.400000000000       7.5514375916420    
  16.800000000000       14.921380157318    
  17.200000000000       7.5385228880169    
  17.600000000000       22.556563799504    
  18.000000000000       19.988626671595    
  18.400000000000       14.905609745846    
  18.800000000000       5.0265124306973    
  19.200000000000       5.0601822570422    
  19.600000000000       5.0059119813615    
  20.000000000000       0.0000000000000    
ZONE T= "Xw:     39.9300      Yw:     28.4100      Rw:    0.100000      Zwbot:     13.5000      Zwtop:     14.0000       Specie:  1 "
 0.40000000000000       0.0000000000000    
 0.80000000000000       0.0000000000000    
  1.2000000000000       0.0000000000000    
  1.6000000000000       0.0000000000000    
  2.0000000000000       0.0000000000000    
  2.4000000000000       0.0000000000000    
  2.8000000000000       0.0000000000000    
  3.2000000000000       0.0000000000000    
  3.6000000000000       0.0000000000000    
  4.0000000000000       0.0000000000000    
  4.4000000000000       0.0000000000000    
  4.8000000000000       0.0000000000000    
  5.2000000000000       0.0000000000000    
  5.6000000000000       0.0000000000000    
  6.0000000000000       0.0000000000000    
  6.4000000000000       0.0000000000000    
  6.8000000000000       0.0000000000000    
  7.2000000000000       0.0000000000000    
  7.6000000000000       0.0000000000000    
  8.0000000000000       0.0000000000000    
  8.4000000000000       0.0000000000000    
  8.8000000000000       0.0000000000000    
  9.2000000000000       0.0000000000000    
  9.6000000000000       2.5109472087471    
  10.000000000000       0.0000000000000    
  10.400000000000       0.0000000000000    
  10.800000000000       0.0000000000000    
  11.200000000000       2.5109472087471    
  11.600000000000       0.0000000000000    
  12.000000000000       0.0000000000000    
  12.400000000000       0.0000000000000    
  12.800000000000       0.0000000000000    
  13.200000000000       0.0000000000000    
  13.600000000000       0.0000000000000    
  14.000000000000       0.0000000000000    
  14.400000000000       0.0000000000000    
  14.800000000000       0.0000000000000    
  15.200000000000       0.0000000000000    
  15.600000000000       0.0000000000000    
  16.000000000000       9.9530839016401    
  16.400000000000       4.9841858713365    
  16.800000000000       4.9841858713365    
  17.200000000000       7.4984291272917    
  17.600000000000       2.4920929356682    
  18.000000000000       2.4920929356682    
  18.400000000000       5.0101581518817    
  18.800000000000       7.5022510875499    
  19.200000000000       2.4882709754100    
  19.600000000000       5.0129188618512    
  20.000000000000       10.061172987911    
ZONE T= "Xw:     39.8300      Yw:     28.4100      Rw:    0.100000      Zwbot:     10.6000      Zwtop:     11.2000       Specie:  1 "
 0.40000000000000       0.0000000000000    
 0.80000000000000       0.0000000000000    
  1.2000000000000       2.5218423276345    
  1.6000000000000       10.075294424764    
  2.0000000000000       15.053583878385    
  2.4000000000000       24.855733782710    
  2.8000000000000       14.994083069410    
  3.2000000000000       12.483000225381    
  3.6000000000000       7.5493957354106    
  4.0000000000000       4.9890534778027    
  4.4000000000000       9.9026607337168    
  4.8000000000000       20.171354493032    
  5.2000000000000       37.612265741763    
  5.6000000000000       27.381485013988    
  6.0000000000000       22.512347039490    
  6.4000000000000       30.060183008531    
  6.8000000000000       27.532048043236    
  7.2000000000000       5.0549616986415    
  7.6000000000000       32.576802754931    
  8.0000000000000       44.788404022876    
  8.4000000000000       29.924333047150    
  8.8000000000000       50.008546791719    
  9.2000000000000       19.925645306075    
  9.6000000000000       20.033082077838    
  10.000000000000       22.499369994858    
  10.400000000000       17.511543969631    
  10.800000000000       27.471024959029    
  11.200000000000       24.969833410928    
  11.600000000000       32.465474915460    
  12.000000000000       34.889519307452    
  12.400000000000       37.513719944360    
  12.800000000000       45.104678072037    
  13.200000000000       19.982429341230    
  13.600000000000       44.679357480701    
  14.000000000000       12.367104642848    
  14.400000000000       17.439540589868    
  14.800000000000       9.9624146520143    
  15.200000000000       5.0095071379425    
  15.600000000000       7.5476742252980    
  16.000000000000       9.8701432265547    
  16.400000000000       14.928733026344    
  16.800000000000       7.4763016907302    
  17.200000000000       12.444720197381    
  17.600000000000       14.858647318601    
  18.000000000000       10.014501801122    
  18.400000000000       17.577030564786    
  18.800000000000       7.5630998102689    
  19.200000000000       2.5206026450559    
  19.600000000000       14.978746426105    
  20.000000000000       4.9859060284312    
ZONE T= "Xw:     39.8300      Yw:     28.4100      Rw:    0.100000      Zwbot:     7.60000      Zwtop:     8.30000       Specie:  1 "
 0.40000000000000       0.0000000000000    
 0.80000000000000       0.0000000000000    
  1.2000000000000       0.0000000000000    
  1.6000000000000       0.0000000000000    
  2.0000000000000       2.4711239740282    
  2.4000000000000       0.0000000000000    
  2.8000000000000       0.0000000000000    
  3.2000000000000       7.3920956386547    
  3.6000000000000       2.5100684839747    
  4.0000000000000       12.387472285611    
  4.4000000000000       7.4163347345132    
  4.8000000000000       0.0000000000000    
  5.2000000000000       19.967728661961    
  5.6000000000000       9.9334179462995    
  6.0000000000000       4.9589635901305    
  6.4000000000000       22.472538062212    
  6.8000000000000       39.879211103790    
  7.2000000000000       44.854881152784    
  7.6000000000000       12.525703900829    
  8.0000000000000       37.503216480753    
  8.4000000000000       25.136756254855    
  8.8000000000000       42.428844680428    
  9.2000000000000       27.452276459413    
  9.6000000000000       32.454766272758    
  10.000000000000       9.9595595519033    
  10.400000000000       37.458577593257    
  10.800000000000       32.556069992603    
  11.200000000000       22.417222525623    
  11.600000000000       17.562545276977    
  12.000000000000       19.920083010803    
  12.400000000000       35.050867578550    
  12.800000000000       14.995877803622    
  13.200000000000       37.472996981337    
  13.600000000000       32.430049408043    
  14.000000000000       59.911982059270    
  14.400000000000       37.597819163697    
  14.800000000000       27.523451893209    
  15.200000000000       22.646644655074    
  15.600000000000       35.104357306749    
  16.000000000000       42.539593040064    
  16.400000000000       27.552837815146    
  16.800000000000       35.001069723023    
  17.200000000000       40.234177209979    
  17.600000000000       20.072478394752    
  18.000000000000       17.616422535344    
  18.400000000000       20.101608849578    
  18.800000000000       22.476294434440    
  19.200000000000       7.4368646489369    
  19.600000000000       7.4948720410468    
  20.000000000000       0.0000000000000    
ZONE T= "Xw:     39.8300      Yw:     28.5100      Rw:    0.100000      Zwbot:     4.50000      Zwtop:     5.00000       Specie:  1 "
 0.40000000000000       2.5034599749010    
 0.80000000000000       2.5034599749010    
  1.2000000000000       0.0000000000000    
  1.6000000000000       2.4943628082776    
  2.0000000000000       19.997204377313    
  2.4000000000000       25.014758775156    
  2.8000000000000       37.486151905158    
  3.2000000000000       15.032920553825    
  3.6000000000000       27.642324323462    
  4.0000000000000       37.605911069550    
  4.4000000000000       27.584750951339    
  4.8000000000000       57.810762684459    
  5.2000000000000       32.646552985040    
  5.6000000000000       42.630052526135    
  6.0000000000000       32.704478575498    
  6.4000000000000       59.918184115039    
  6.8000000000000       49.814793356847    
  7.2000000000000       37.415975514798    
  7.6000000000000       47.458290228253    
  8.0000000000000       27.458946346743    
  8.4000000000000       32.597665150156    
  8.8000000000000       17.445026250019    
  9.2000000000000       22.343660773739    
  9.6000000000000       14.879186286105    
  10.000000000000       7.5002383056669    
  10.400000000000       2.5312479940810    
  10.800000000000       12.597902453992    
  11.200000000000       15.023727478628    
  11.600000000000       7.4832804072566    
  12.000000000000       12.458371112995    
  12.400000000000       12.508079775256    
  12.800000000000       2.4998903553566    
  13.200000000000       7.4600416473635    
  13.600000000000       12.578947050821    
  14.000000000000       7.5500619492143    
  14.400000000000       5.0146597554458    
  14.800000000000       2.4932104768687    
  15.200000000000       0.0000000000000    
  15.600000000000       0.0000000000000    
  16.000000000000       0.0000000000000    
  16.400000000000       0.0000000000000    
  16.800000000000       0.0000000000000    
  17.200000000000       0.0000000000000    
  17.600000000000       0.0000000000000    
  18.000000000000       0.0000000000000    
  18.400000000000       0.0000000000000    
  18.800000000000       0.0000000000000    
  19.200000000000       0.0000000000000    
  19.600000000000       0.0000000000000    
  20.000000000000       0.0000000000000    
ZONE T= "Xw:     39.5300      Yw:     34.0100      Rw:    0.100000      Zwbot:     16.7000      Zwtop:     17.3000       Specie:  1 "
 0.40000000000000       0.0000000000000    
 0.80000000000000       0.0000000000000    
  1.2000000000000       0.0000000000000    
  1.6000000000000       0.0000000000000    
  2.0000000000000       7.5334993577699    
  2.4000000000000       2.5230407364144    
  2.8000000000000       17.539153201482    
  3.2000000000000       12.507628437130    
  3.6000000000000       12.400073881592    
  4.0000000000000       9.9121147954811    
  4.4000000000000       7.4477084645587    
  4.8000000000000       22.363476396125    
  5.2000000000000       17.480120709256    
  5.6000000000000       10.044190597717    
  6.0000000000000       15.057586945498    
  6.4000000000000       12.409217889570    
  6.8000000000000       9.9406745874205    
  7.2000000000000       17.423027102429    
  7.6000000000000       19.995915220838    
  8.0000000000000       17.455353784064    
  8.4000000000000       24.849972179657    
  8.8000000000000       9.9605831616011    
  9.2000000000000       17.399372239250    
  9.6000000000000       12.451667284249    
  10.000000000000       9.9599290213712    
  10.400000000000       14.931288987024    
  10.800000000000       10.024540428146    
  11.200000000000       14.925051106517    
  11.600000000000       7.5184493816378    
  12.000000000000       15.003240137852    
  12.400000000000       17.518347597168    
  12.800000000000       15.058676406928    
  13.200000000000       17.501206285949    
  13.600000000000       27.480423574715    
  14.000000000000       19.900132227083    
  14.400000000000       12.460757120346    
  14.800000000000       15.016563031545    
  15.200000000000       19.847343248602    
  15.600000000000       22.506242945551    
  16.000000000000       17.530085878154    
  16.400000000000       17.538795644450    
  16.800000000000       25.088552552033    
  17.200000000000       7.4928073519673    
  17.600000000000       15.033093926608    
  18.000000000000       17.502133800375    
  18.400000000000       9.9810520697018    
  18.800000000000       12.487555483671    
  19.200000000000       14.988897296589    
  19.600000000000       12.483330277308    
  20.000000000000       5.0249249610413    
ZONE T= "Xw:     39.5300      Yw:     34.1100      Rw:    0.100000      Zwbot:     13.5000      Zwtop:     14.0000       Specie:  1 "
 0.40000000000000       0.0000000000000    
 0.80000000000000       0.0000000000000    
  1.2000000000000       0.0000000000000    
  1.6000000000000       0.0000000000000    
  2.0000000000000       0.0000000000000    
  2.4000000000000       0.0000000000000    
  2.8000000000000       0.0000000000000    
  3.2000000000000       2.4728743632597    
  3.6000000000000       0.0000000000000    
  4.0000000000000       0.0000000000000    
  4.4000000000000       2.4728743632597    
  4.8000000000000       2.4728743632597    
  5.2000000000000       0.0000000000000    
  5.6000000000000       0.0000000000000    
  6.0000000000000       2.4728743632597    
  6.4000000000000       0.0000000000000    
  6.8000000000000       7.5339438094602    
  7.2000000000000       12.505199302632    
  7.6000000000000       12.490994311877    
  8.0000000000000       4.9679021518086    
  8.4000000000000       9.9593532533533    
  8.8000000000000       0.0000000000000    
  9.2000000000000       0.0000000000000    
  9.6000000000000       7.4399412504548    
  10.000000000000       12.503917104284    
  10.400000000000       14.996592715813    
  10.800000000000       27.640592040479    
  11.200000000000       17.545874295511    
  11.600000000000       5.0073406924964    
  12.000000000000       19.947632085099    
  12.400000000000       10.099204376468    
  12.800000000000       4.9835235189728    
  13.200000000000       7.4186230897790    
  13.600000000000       2.4959557739541    
  14.000000000000       2.4640318795516    
  14.400000000000       5.0353584863141    
  14.800000000000       7.5121414978725    
  15.200000000000       9.9780176429814    
  15.600000000000       22.375303846608    
  16.000000000000       27.486198105981    
  16.400000000000       32.468971244976    
  16.800000000000       19.847213973890    
  17.200000000000       7.5515486236113    
  17.600000000000       9.9930475672912    
  18.000000000000       7.5716428054770    
  18.400000000000       22.507558605378    
  18.800000000000       4.9690658419685    
  19.200000000000       27.597483839787    
  19.600000000000       32.740248875748    
  20.000000000000       17.610246157370    
ZONE T= "Xw:     39.4300      Yw:     34.0100      Rw:    0.100000      Zwbot:     10.5000      Zwtop:     11.1000       Specie:  1 "
 0.40000000000000       22.554126733520    
 0.80000000000000       17.491865710769    
  1.2000000000000       20.001050367646    
  1.6000000000000       17.561429131916    
  2.0000000000000       15.068789991693    
  2.4000000000000       14.993596804541    
  2.8000000000000       24.993209343404    
  3.2000000000000       29.978400554548    
  3.6000000000000       17.508906694351    
  4.0000000000000       9.9693428520280    
  4.4000000000000       24.942443934816    
  4.8000000000000       47.605027609641    
  5.2000000000000       37.560332602018    
  5.6000000000000       47.412756195437    
  6.0000000000000       27.508372529210    
  6.4000000000000       42.447672230253    
  6.8000000000000       47.473103388043    
  7.2000000000000       45.049730633750    
  7.6000000000000       20.115390009915    
  8.0000000000000       32.676349003499    
  8.4000000000000       37.589354524629    
  8.8000000000000       22.639075480602    
  9.2000000000000       20.051260174728    
  9.6000000000000       12.510024385572    
  10.000000000000       22.492744082764    