 TITLE="TECPLOT input file: Breakthrough Curves" 
 VARIABLES="Time" "Concentrations" 
ZONE T= "Xw:     39.9300      Yw:     22.4100      Rw:    0.100000      Zwbot:     16.5000      Zwtop:     17.0000       Specie:  1 "
  0.0000000000000       0.0000000000000    
  0.0000000000000       0.0000000000000    
  0.0000000000000       0.0000000000000    
  0.0000000000000       0.0000000000000    
  0.0000000000000       0.0000000000000    
  0.0000000000000       0.0000000000000    
  0.0000000000000       0.0000000000000    
  0.0000000000000       0.0000000000000    
  0.0000000000000       0.0000000000000    
  0.0000000000000       0.0000000000000    
  0.0000000000000       0.0000000000000    
  0.0000000000000       0.0000000000000    
  0.0000000000000       0.0000000000000    
  0.0000000000000       0.0000000000000    
  0.0000000000000       0.0000000000000    
  0.0000000000000       0.0000000000000    
  0.0000000000000       0.0000000000000    
  0.0000000000000       0.0000000000000    
  0.0000000000000       0.0000000000000    
  0.0000000000000       0.0000000000000    
  0.0000000000000       0.0000000000000    
  0.0000000000000       0.0000000000000    
  0.0000000000000       0.0000000000000    
  0.0000000000000       0.0000000000000    
  0.0000000000000       0.0000000000000    
  0.0000000000000       0.0000000000000    
  0.0000000000000       0.0000000000000    
  0.0000000000000       0.0000000000000    
  0.0000000000000       0.0000000000000    
  0.0000000000000       0.0000000000000    
  0.0000000000000       0.0000000000000    
  0.0000000000000       0.0000000000000    
  0.0000000000000       0.0000000000000    
  0.0000000000000       0.0000000000000    
  0.0000000000000       0.0000000000000    
  0.0000000000000       0.0000000000000    
  0.0000000000000       0.0000000000000    
  0.0000000000000       0.0000000000000    
  0.0000000000000       0.0000000000000    
  0.0000000000000       0.0000000000000    
  0.0000000000000       0.0000000000000    
  0.0000000000000       0.0000000000000    
  0.0000000000000       0.0000000000000    
  0.0000000000000       0.0000000000000    
  0.0000000000000       0.0000000000000    
  0.0000000000000       0.0000000000000    
  0.0000000000000       0.0000000000000    
  0.0000000000000       0.0000000000000    
  0.0000000000000       0.0000000000000    
  0.0000000000000       0.0000000000000    
ZONE T= "Xw:     39.9300      Yw:     22.4100      Rw:    0.100000      Zwbot:     13.5000      Zwtop:     14.0000       Specie:  1 "
 0.40000000000000       0.0000000000000    
 0.80000000000000       0.0000000000000    
  1.2000000000000       0.0000000000000    
  1.6000000000000       0.0000000000000    
  2.0000000000000       0.0000000000000    
  2.4000000000000       0.0000000000000    
  2.8000000000000       0.0000000000000    
  3.2000000000000       0.0000000000000    
  3.6000000000000       0.0000000000000    
  4.0000000000000       0.0000000000000    
  4.4000000000000       0.0000000000000    
  4.8000000000000       0.0000000000000    
  5.2000000000000       0.0000000000000    
  5.6000000000000       0.0000000000000    
  6.0000000000000       0.0000000000000    
  6.4000000000000       0.0000000000000    
  6.8000000000000       0.0000000000000    
  7.2000000000000       0.0000000000000    
  7.6000000000000       0.0000000000000    
  8.0000000000000       0.0000000000000    
  8.4000000000000       0.0000000000000    
  8.8000000000000       0.0000000000000    
  9.2000000000000       0.0000000000000    
  9.6000000000000       0.0000000000000    
  10.000000000000       0.0000000000000    
  10.400000000000       0.0000000000000    
  10.800000000000       2.4967775999161    
  11.200000000000       0.0000000000000    
  11.600000000000       4.9808355709306    
  12.000000000000       0.0000000000000    
  12.400000000000       0.0000000000000    
  12.800000000000       7.4894419402896    
  13.200000000000       4.9867499556520    
  13.600000000000       12.457557882319    
  14.000000000000       2.5026919846375    
  14.400000000000       0.0000000000000    
  14.800000000000       4.9805721391224    
  15.200000000000       7.4687602114927    
  15.600000000000       0.0000000000000    
  16.000000000000       2.4923511202391    
  16.400000000000       2.4965141681079    
  16.800000000000       4.9930283362158    
  17.200000000000       5.0156356704491    
  17.600000000000       12.474099361864    
  18.000000000000       9.9870861688465    
  18.400000000000       4.9987531350759    
  18.800000000000       12.458246406109    
  19.200000000000       15.026449476776    
  19.600000000000       7.4805418604337    
  20.000000000000       0.0000000000000    
ZONE T= "Xw:     39.9300      Yw:     22.3100      Rw:    0.100000      Zwbot:     10.5000      Zwtop:     11.0000       Specie:  1 "
 0.40000000000000       0.0000000000000    
 0.80000000000000       0.0000000000000    
  1.2000000000000       0.0000000000000    
  1.6000000000000       0.0000000000000    
  2.0000000000000       0.0000000000000    
  2.4000000000000       0.0000000000000    
  2.8000000000000       0.0000000000000    
  3.2000000000000       0.0000000000000    
  3.6000000000000       0.0000000000000    
  4.0000000000000       0.0000000000000    
  4.4000000000000       0.0000000000000    
  4.8000000000000       2.4773999469791    
  5.2000000000000       4.9846285866463    
  5.6000000000000       9.9668312908963    
  6.0000000000000       12.510927312184    
  6.4000000000000       27.476318907737    
  6.8000000000000       24.915390424579    
  7.2000000000000       22.476119991410    
  7.6000000000000       25.003584546806    
  8.0000000000000       24.916219081166    
  8.4000000000000       14.972744756294    
  8.8000000000000       27.417068423215    
  9.2000000000000       19.902913143662    
  9.6000000000000       10.020067653481    
  10.000000000000       12.457035571735    
  10.400000000000       37.606374731515    
  10.800000000000       30.054030271392    
  11.200000000000       32.450036067408    
  11.600000000000       49.957160057032    
  12.000000000000       32.484102948948    
  12.400000000000       37.400439158697    
  12.800000000000       12.482008083088    
  13.200000000000       17.387951981247    
  13.600000000000       29.872627373064    
  14.000000000000       24.945732151862    
  14.400000000000       19.985628537517    
  14.800000000000       14.995282770476    
  15.200000000000       7.5324485547713    
  15.600000000000       17.511323700630    
  16.000000000000       17.539951554018    
  16.400000000000       17.500998022340    
  16.800000000000       22.505628395554    
  17.200000000000       2.4781722609445    
  17.600000000000       4.9563445218890    
  18.000000000000       9.9720825671519    
  18.400000000000       4.9832452059637    
  18.800000000000       2.4879591548583    
  19.200000000000       0.0000000000000    
  19.600000000000       2.4781722609445    
  20.000000000000       0.0000000000000    
ZONE T= "Xw:     40.0300      Yw:     22.4100      Rw:    0.100000      Zwbot:     7.60000      Zwtop:     8.10000       Specie:  1 "
 0.40000000000000       0.0000000000000    
 0.80000000000000       0.0000000000000    
  1.2000000000000       0.0000000000000    
  1.6000000000000       0.0000000000000    
  2.0000000000000       0.0000000000000    
  2.4000000000000       0.0000000000000    
  2.8000000000000       0.0000000000000    
  3.2000000000000       0.0000000000000    
  3.6000000000000       2.4848612203738    
  4.0000000000000       0.0000000000000    
  4.4000000000000       4.9797053235742    
  4.8000000000000       5.0001759897429    
  5.2000000000000       2.5103233279558    
  5.6000000000000       7.5502547393392    
  6.0000000000000       4.9723558352420    
  6.4000000000000       4.9780371090183    
  6.8000000000000       17.480055762807    
  7.2000000000000       15.074766084001    
  7.6000000000000       15.031711501856    
  8.0000000000000       32.532101927234    
  8.4000000000000       25.122978422122    
  8.8000000000000       42.570917018103    
  9.2000000000000       47.553693380891    
  9.6000000000000       55.161413938480    
  10.000000000000       22.531918179687    
  10.400000000000       40.056629640621    
  10.800000000000       55.061408450716    
  11.200000000000       19.976578169348    
  11.600000000000       39.923012019754    
  12.000000000000       35.002079722278    
  12.400000000000       37.422420906258    
  12.800000000000       12.467453046378    
  13.200000000000       37.421923949255    
  13.600000000000       37.463942163702    
  14.000000000000       37.452882212399    
  14.400000000000       52.580268437048    
  14.800000000000       40.018527081599    
  15.200000000000       39.972973101680    
  15.600000000000       20.046273632978    
  16.000000000000       37.484575812033    
  16.400000000000       14.957692334945    
  16.800000000000       15.037335547372    
  17.200000000000       19.880423842698    
  17.600000000000       9.9819026423795    
  18.000000000000       9.9616632517130    
  18.400000000000       19.994814435568    
  18.800000000000       10.014045218597    
  19.200000000000       27.562438086275    
  19.600000000000       17.556742933906    
  20.000000000000       2.4898526617871    
ZONE T= "Xw:     39.9300      Yw:     22.4100      Rw:    0.100000      Zwbot:     4.50000      Zwtop:     5.00000       Specie:  1 "
 0.40000000000000       0.0000000000000    
 0.80000000000000       0.0000000000000    
  1.2000000000000       0.0000000000000    
  1.6000000000000       0.0000000000000    
  2.0000000000000       0.0000000000000    
  2.4000000000000       0.0000000000000    
  2.8000000000000       0.0000000000000    
  3.2000000000000       2.4825031734549    
  3.6000000000000       2.5003651354730    
  4.0000000000000       2.5003651354730    
  4.4000000000000       7.4673097158120    
  4.8000000000000       9.9710088528015    
  5.2000000000000       0.0000000000000    
  5.6000000000000       9.9931908373291    
  6.0000000000000       9.9752950581009    
  6.4000000000000       19.954474203701    
  6.8000000000000       19.955926467651    
  7.2000000000000       37.563938564142    
  7.6000000000000       32.498509481623    
  8.0000000000000       34.989782423575    
  8.4000000000000       32.515775847159    
  8.8000000000000       45.069017454237    
  9.2000000000000       22.554887374344    
  9.6000000000000       29.969398801799    
  10.000000000000       37.457480352566    
  10.400000000000       47.383540020662    
  10.800000000000       27.394955348316    
  11.200000000000       25.002007418332    
  11.600000000000       34.889722765746    
  12.000000000000       44.862278425100    
  12.400000000000       47.462940002372    
  12.800000000000       14.964621622085    
  13.200000000000       27.416152914726    
  13.600000000000       34.987457275508    
  14.000000000000       35.105548153837    
  14.400000000000       14.998982510442    
  14.800000000000       9.9387399802816    
  15.200000000000       9.9545876150222    
  15.600000000000       17.418355926492    
  16.000000000000       22.501566370319    
  16.400000000000       9.9908179048634    
  16.800000000000       17.457688775239    
  17.200000000000       12.491488405732    
  17.600000000000       5.0060124021306    
  18.000000000000       0.0000000000000    
  18.400000000000       0.0000000000000    
  18.800000000000       5.0121335812720    
  19.200000000000       9.9965264476028    
  19.600000000000       2.4955912156871    
  20.000000000000       0.0000000000000    
ZONE T= "Xw:     39.8300      Yw:     28.4100      Rw:    0.100000      Zwbot:     16.5000      Zwtop:     17.0000       Specie:  1 "
 0.40000000000000       0.0000000000000    
 0.80000000000000       0.0000000000000    
  1.2000000000000       0.0000000000000    
  1.6000000000000       0.0000000000000    
  2.0000000000000       0.0000000000000    
  2.4000000000000       0.0000000000000    
  2.8000000000000       0.0000000000000    
  3.2000000000000       0.0000000000000    
  3.6000000000000       0.0000000000000    
  4.0000000000000       0.0000000000000    
  4.4000000000000       2.4745756034575    
  4.8000000000000       4.9491512069150    
  5.2000000000000       4.9550488108823    
  5.6000000000000       4.9516970749529    
  6.0000000000000       10.015827870264    
  6.4000000000000       0.0000000000000    
  6.8000000000000       15.001263460412    
  7.2000000000000       27.557126988465    
  7.6000000000000       12.482211342942    
  8.0000000000000       7.4670876376451    
  8.4000000000000       4.9944813384352    
  8.8000000000000       17.531817635148    
  9.2000000000000       25.064650257948    
  9.6000000000000       15.099845007616    
  10.000000000000       25.157892014727    
  10.400000000000       22.636769654808    
  10.800000000000       15.214594688681    
  11.200000000000       20.073005076162    
  11.600000000000       4.9586376454433    
  12.000000000000       0.0000000000000    
  12.400000000000       17.508827164829    
  12.800000000000       7.4797514165773    
  13.200000000000       2.5279481789164    
  13.600000000000       10.120676639120    
  14.000000000000       2.5399187982266    
  14.400000000000       10.046313576480    
  14.800000000000       4.9398152928358    
  15.200000000000       12.489560535707    
  15.600000000000       9.9376711181702    
  16.000000000000       14.786920383646    
  16.400000000000       24.846834088169    
  16.800000000000       12.572753433268    
  17.200000000000       15.070753113501    
  17.600000000000       17.482470326572    
  18.000000000000       22.402076513315    
  18.400000000000       7.5034371523165    
  18.800000000000       17.488805650250    
  19.200000000000       19.825644225841    
  19.600000000000       2.4666023498490    
  20.000000000000       2.4833674605731    
ZONE T= "Xw:     39.9300      Yw:     28.4100      Rw:    0.100000      Zwbot:     13.5000      Zwtop:     14.0000       Specie:  1 "
 0.40000000000000       0.0000000000000    
 0.80000000000000       0.0000000000000    
  1.2000000000000       0.0000000000000    
  1.6000000000000       0.0000000000000    
  2.0000000000000       0.0000000000000    
  2.4000000000000       0.0000000000000    
  2.8000000000000       0.0000000000000    
  3.2000000000000       0.0000000000000    
  3.6000000000000       0.0000000000000    
  4.0000000000000       0.0000000000000    
  4.4000000000000       0.0000000000000    
  4.8000000000000       0.0000000000000    
  5.2000000000000       0.0000000000000    
  5.6000000000000       0.0000000000000    
  6.0000000000000       0.0000000000000    
  6.4000000000000       0.0000000000000    
  6.8000000000000       0.0000000000000    
  7.2000000000000       0.0000000000000    
  7.6000000000000       0.0000000000000    
  8.0000000000000       0.0000000000000    
  8.4000000000000       0.0000000000000    
  8.8000000000000       0.0000000000000    
  9.2000000000000       0.0000000000000    
  9.6000000000000       0.0000000000000    
  10.000000000000       0.0000000000000    
  10.400000000000       0.0000000000000    
  10.800000000000       0.0000000000000    
  11.200000000000       9.9938586141022    
  11.600000000000       0.0000000000000    
  12.000000000000       0.0000000000000    
  12.400000000000       0.0000000000000    
  12.800000000000       2.4953203058387    
  13.200000000000       2.4953203058387    
  13.600000000000       2.4953203058387    
  14.000000000000       0.0000000000000    
  14.400000000000       0.0000000000000    
  14.800000000000       7.4678555234493    
  15.200000000000       2.4953203058387    
  15.600000000000       0.0000000000000    
  16.000000000000       0.0000000000000    
  16.400000000000       2.4704370817985    
  16.800000000000       7.4808880020219    
  17.200000000000       0.0000000000000    
  17.600000000000       4.9732815264482    
  18.000000000000       0.0000000000000    
  18.400000000000       7.4001673430562    
  18.800000000000       10.004140444332    
  19.200000000000       10.053509790648    
  19.600000000000       2.5052254601117    
  20.000000000000       7.5959358972246    
ZONE T= "Xw:     39.8300      Yw:     28.4100      Rw:    0.100000      Zwbot:     10.6000      Zwtop:     11.2000       Specie:  1 "
 0.40000000000000       0.0000000000000    
 0.80000000000000       0.0000000000000    
  1.2000000000000       0.0000000000000    
  1.6000000000000       0.0000000000000    
  2.0000000000000       7.6049644959489    
  2.4000000000000       4.9973627798412    
  2.8000000000000       2.5309119122196    
  3.2000000000000       10.090927779654    
  3.6000000000000       15.185646477055    
  4.0000000000000       14.867078167505    
  4.4000000000000       4.9696614724219    
  4.8000000000000       12.490853832608    
  5.2000000000000       19.911310338785    
  5.6000000000000       12.503091441046    
  6.0000000000000       15.012022848215    
  6.4000000000000       29.912329925496    
  6.8000000000000       4.9800161000863    
  7.2000000000000       27.404086940719    
  7.6000000000000       34.986487542114    
  8.0000000000000       29.863902080742    
  8.4000000000000       7.4156625838469    
  8.8000000000000       29.962995207790    
  9.2000000000000       24.916611333923    
  9.6000000000000       40.025775548338    
  10.000000000000       12.455219132504    
  10.400000000000       22.452908794696    
  10.800000000000       22.370131675573    
  11.200000000000       34.911394110612    
  11.600000000000       59.944771421130    
  12.000000000000       39.918617181520    
  12.400000000000       9.9876463914669    
  12.800000000000       14.967328440785    
  13.200000000000       17.437973917058    
  13.600000000000       22.333732148503    
  14.000000000000       44.875238653860    
  14.400000000000       22.570524237281    
  14.800000000000       17.519081922836    
  15.200000000000       14.975329656202    
  15.600000000000       19.945434516016    
  16.000000000000       14.924651725436    
  16.400000000000       14.876087005596    
  16.800000000000       7.4973703113146    
  17.200000000000       14.969764010942    
  17.600000000000       12.336632866920    
  18.000000000000       9.9371158746917    
  18.400000000000       2.5267257214940    
  18.800000000000       0.0000000000000    
  19.200000000000       15.160885197326    
  19.600000000000       5.0569621546315    
  20.000000000000       5.0368471206867    
ZONE T= "Xw:     39.8300      Yw:     28.4100      Rw:    0.100000      Zwbot:     7.60000      Zwtop:     8.30000       Specie:  1 "
 0.40000000000000       0.0000000000000    
 0.80000000000000       0.0000000000000    
  1.2000000000000       0.0000000000000    
  1.6000000000000       0.0000000000000    
  2.0000000000000       7.5995431752223    
  2.4000000000000       0.0000000000000    
  2.8000000000000       2.5331810584074    
  3.2000000000000       0.0000000000000    
  3.6000000000000       0.0000000000000    
  4.0000000000000       2.4982794240624    
  4.4000000000000       2.4982794240624    
  4.8000000000000       7.5611657333519    
  5.2000000000000       2.4970310855104    
  5.6000000000000       7.4787586008662    
  6.0000000000000       7.4908715017341    
  6.4000000000000       4.9999079889571    
  6.8000000000000       27.360038536119    
  7.2000000000000       34.829863948739    
  7.6000000000000       19.936854841358    
  8.0000000000000       37.435510025996    
  8.4000000000000       42.264202267973    
  8.8000000000000       44.881427589837    
  9.2000000000000       37.148981067129    
  9.6000000000000       39.816089042769    
  10.000000000000       54.413061410463    
  10.400000000000       35.000051863753    
  10.800000000000       39.856802926477    
  11.200000000000       34.947708332544    
  11.600000000000       19.927852713032    
  12.000000000000       54.880876853243    
  12.400000000000       37.630625450332    
  12.800000000000       27.580879392781    
  13.200000000000       30.194118763259    
  13.600000000000       25.107793451094    
  14.000000000000       47.556417181235    
  14.400000000000       52.439209138442    
  14.800000000000       47.604655651048    
  15.200000000000       75.043131105818    
  15.600000000000       47.487756808115    
  16.000000000000       45.014907168598    
  16.400000000000       24.883525163925    
  16.800000000000       7.5253936416159    
  17.200000000000       22.510338470429    
  17.600000000000       22.585441612862    
  18.000000000000       27.598085632538    
  18.400000000000       27.528263753991    
  18.800000000000       17.441142465266    
  19.200000000000       12.543361847520    
  19.600000000000       24.960153844369    
  20.000000000000       4.9838564750137    
ZONE T= "Xw:     39.8300      Yw:     28.5100      Rw:    0.100000      Zwbot:     4.50000      Zwtop:     5.00000       Specie:  1 "
 0.40000000000000       20.003646084956    
 0.80000000000000       7.4742004787937    
  1.2000000000000       7.5041026365573    
  1.6000000000000       22.496350683768    
  2.0000000000000       17.492199298463    
  2.4000000000000       9.9486042084777    
  2.8000000000000       17.486135116396    
  3.2000000000000       2.5137018297903    
  3.6000000000000       25.131131734637    
  4.0000000000000       14.905665269165    
  4.4000000000000       39.791288003008    
  4.8000000000000       44.759332030538    
  5.2000000000000       47.515551271169    
  5.6000000000000       62.339673317650    
  6.0000000000000       67.437236807972    
  6.4000000000000       47.586955089126    
  6.8000000000000       55.076984444765    
  7.2000000000000       47.610005536878    
  7.6000000000000       50.087942161223    
  8.0000000000000       30.048169557100    
  8.4000000000000       20.090004804838    
  8.8000000000000       22.558560880114    
  9.2000000000000       32.506456370974    
  9.6000000000000       24.986922475787    
  10.000000000000       22.502147734586    
  10.400000000000       37.657918185784    
  10.800000000000       49.898791341993    
  11.200000000000       20.038407171712    
  11.600000000000       2.5107090860845    
  12.000000000000       7.5295675743450    
  12.400000000000       17.628409664937    
  12.800000000000       17.394023150108    
  13.200000000000       17.373974731685    
  13.600000000000       7.4981963520930    
  14.000000000000       14.925749994456    
  14.400000000000       2.4758485374764    
  14.800000000000       0.0000000000000    
  15.200000000000       2.4976660708169    
  15.600000000000       2.4976660708169    
  16.000000000000       0.0000000000000    
  16.400000000000       0.0000000000000    
  16.800000000000       2.5180240492088    
  17.200000000000       2.5180240492088    
  17.600000000000       5.0250076123295    
  18.000000000000       5.0250076123295    
  18.400000000000       4.9925402030930    
  18.800000000000       0.0000000000000    
  19.200000000000       0.0000000000000    
  19.600000000000       0.0000000000000    
  20.000000000000       0.0000000000000    
ZONE T= "Xw:     39.5300      Yw:     34.0100      Rw:    0.100000      Zwbot:     16.7000      Zwtop:     17.3000       Specie:  1 "
 0.40000000000000       20.084369530783    
 0.80000000000000       4.9943769372423    
  1.2000000000000       2.5045662152750    
  1.6000000000000       7.5237502875465    
  2.0000000000000       15.081527007911    
  2.4000000000000       12.579937326545    
  2.8000000000000       17.508394128803    
  3.2000000000000       7.5223054615462    
  3.6000000000000       5.0245511378048    
  4.0000000000000       15.050257785903    
  4.4000000000000       17.457753792574    
  4.8000000000000       40.116727766951    
  5.2000000000000       32.633764572763    
  5.6000000000000       17.473718812013    
  6.0000000000000       7.5122865506092    
  6.4000000000000       12.473354105121    
  6.8000000000000       17.493076970519    
  7.2000000000000       27.449258787853    
  7.6000000000000       7.4684965339820    
  8.0000000000000       40.117361424671    
  8.4000000000000       34.976831635931    
  8.8000000000000       32.448711817609    
  9.2000000000000       24.988726980112    
  9.6000000000000       37.530421835841    
  10.000000000000       12.517009480017    
  10.400000000000       9.9995453050728    
  10.800000000000       7.4979793633464    
  11.200000000000       7.4679486082625    
  11.600000000000       32.478474314579    
  12.000000000000       22.503933749965    
  12.400000000000       17.579162528327    
  12.800000000000       15.113238129064    
  13.200000000000       17.669043517193    
  13.600000000000       5.0110870053652    
  14.000000000000       12.578321386929    
  14.400000000000       5.0558728928732    
  14.800000000000       17.483783347938    
  15.200000000000       17.628251637488    
  15.600000000000       7.4923440747053    
  16.000000000000       22.552071426563    
  16.400000000000       15.079869290017    
  16.800000000000       17.557275390193    
  17.200000000000       17.518071322453    
  17.600000000000       14.920572653927    
  18.000000000000       7.4244975787810    
  18.400000000000       9.8918224507419    
  18.800000000000       17.458031950276    
  19.200000000000       7.4207081870427    
  19.600000000000       2.4932639805623    
  20.000000000000       2.4932639805623    
ZONE T= "Xw:     39.5300      Yw:     34.1100      Rw:    0.100000      Zwbot:     13.5000      Zwtop:     14.0000       Specie:  1 "
 0.40000000000000       0.0000000000000    
 0.80000000000000       0.0000000000000    
  1.2000000000000       0.0000000000000    
  1.6000000000000       0.0000000000000    
  2.0000000000000       0.0000000000000    
  2.4000000000000       0.0000000000000    
  2.8000000000000       0.0000000000000    
  3.2000000000000       2.5113540737635    
  3.6000000000000       4.9785752332143    
  4.0000000000000       4.9785752332143    
  4.4000000000000       9.9686653790782    
  4.8000000000000       2.4912860933027    
  5.2000000000000       7.4738582799081    
  5.6000000000000       0.0000000000000    
  6.0000000000000       0.0000000000000    
  6.4000000000000       2.5137018297903    
  6.8000000000000       7.5263693456866    
  7.2000000000000       10.031954878236    
  7.6000000000000       17.646887834887    
  8.0000000000000       19.984409202730    
  8.4000000000000       14.915138386813    
  8.8000000000000       10.084425096297    
  9.2000000000000       5.0320751627377    
  9.6000000000000       12.560938255115    
  10.000000000000       12.483235264923    
  10.400000000000       10.011385158325    
  10.800000000000       7.4834566875862    
  11.200000000000       12.477380740720    
  11.600000000000       19.861050720305    
  12.000000000000       5.0031794052923    
  12.400000000000       14.937572248533    
  12.800000000000       7.4944719339348    
  13.200000000000       29.998184521728    
  13.600000000000       27.514241485849    
  14.000000000000       27.451217650107    
  14.400000000000       27.524782396241    
  14.800000000000       27.481043946302    
  15.200000000000       27.481251359113    
  15.600000000000       19.973474455631    
  16.000000000000       15.053208618465    
  16.400000000000       30.052879039625    
  16.800000000000       19.946393641869    
  17.200000000000       40.048848554034    
  17.600000000000       32.533607710884    
  18.000000000000       22.496288530940    
  18.400000000000       5.0564731142988    
  18.800000000000       32.394013667073    
  19.200000000000       9.9363900554644    
  19.600000000000       17.504325104719    
  20.000000000000       5.0003529823110    
ZONE T= "Xw:     39.4300      Yw:     34.0100      Rw:    0.100000      Zwbot:     10.5000      Zwtop:     11.1000       Specie:  1 "
 0.40000000000000       12.396721554311    
 0.80000000000000       17.486563485048    
  1.2000000000000       17.596522968651    
  1.6000000000000       30.131628773390    
  2.0000000000000       30.052950555049    
  2.4000000000000       32.526054835814    
  2.8000000000000       42.724131505627    
  3.2000000000000       22.538474934504    
  3.6000000000000       32.440090852384    
  4.0000000000000       9.9332746645402    
  4.4000000000000       29.835190326532    
  4.8000000000000       17.406461365632    
  5.2000000000000       39.885271595210    
  5.6000000000000       29.892872733925    
  6.0000000000000       44.824445681615    
  6.4000000000000       24.848330239682    
  6.8000000000000       12.519527578817    
  7.2000000000000       35.060073584215    
  7.6000000000000       29.940836180995    
  8.0000000000000       22.506428611557    
  8.4000000000000       30.133488581698    
  8.8000000000000       32.458055981784    
  9.2000000000000       25.004647608193    
  9.6000000000000       20.022060951278    
  10.000000000000       29.995033907119    