 TITLE="TECPLOT input file: Breakthrough Curves" 
 VARIABLES="Time" "Concentrations" 
ZONE T= "Xw:     39.9300      Yw:     22.4100      Rw:    0.100000      Zwbot:     16.5000      Zwtop:     17.0000       Specie:  1 "
 0.40000000000000       0.0000000000000    
 0.80000000000000       0.0000000000000    
  1.2000000000000       0.0000000000000    
  1.6000000000000       0.0000000000000    
  2.0000000000000       0.0000000000000    
  2.4000000000000       0.0000000000000    
  2.8000000000000       0.0000000000000    
  3.2000000000000       0.0000000000000    
  3.6000000000000       0.0000000000000    
  4.0000000000000       0.0000000000000    
  4.4000000000000       0.0000000000000    
  4.8000000000000       0.0000000000000    
  5.2000000000000       0.0000000000000    
  5.6000000000000       0.0000000000000    
  6.0000000000000       0.0000000000000    
  6.4000000000000       0.0000000000000    
  6.8000000000000       0.0000000000000    
  7.2000000000000       0.0000000000000    
  7.6000000000000       0.0000000000000    
  8.0000000000000       0.0000000000000    
  8.4000000000000       0.0000000000000    
  8.8000000000000       0.0000000000000    
  9.2000000000000       0.0000000000000    
  9.6000000000000       0.0000000000000    
  10.000000000000       0.0000000000000    
  10.400000000000       0.0000000000000    
  10.800000000000       0.0000000000000    
  11.200000000000       0.0000000000000    
  11.600000000000       0.0000000000000    
  12.000000000000       0.0000000000000    
  12.400000000000       0.0000000000000    
  12.800000000000       0.0000000000000    
  13.200000000000       0.0000000000000    
  13.600000000000       0.0000000000000    
  14.000000000000       0.0000000000000    
  14.400000000000       0.0000000000000    
  14.800000000000       0.0000000000000    
  15.200000000000       0.0000000000000    
  15.600000000000       0.0000000000000    
  16.000000000000       0.0000000000000    
  16.400000000000       2.4984950682579    
  16.800000000000       0.0000000000000    
  17.200000000000       0.0000000000000    
  17.600000000000       0.0000000000000    
  18.000000000000       4.9962412270406    
  18.400000000000       10.001051661223    
  18.800000000000       0.0000000000000    
  19.200000000000       5.0161362403679    
  19.600000000000       9.9443500276244    
  20.000000000000       7.5217954364572    
ZONE T= "Xw:     39.9300      Yw:     22.4100      Rw:    0.100000      Zwbot:     13.5000      Zwtop:     14.0000       Specie:  1 "
 0.40000000000000       0.0000000000000    
 0.80000000000000       0.0000000000000    
  1.2000000000000       0.0000000000000    
  1.6000000000000       0.0000000000000    
  2.0000000000000       0.0000000000000    
  2.4000000000000       0.0000000000000    
  2.8000000000000       0.0000000000000    
  3.2000000000000       0.0000000000000    
  3.6000000000000       0.0000000000000    
  4.0000000000000       0.0000000000000    
  4.4000000000000       0.0000000000000    
  4.8000000000000       0.0000000000000    
  5.2000000000000       0.0000000000000    
  5.6000000000000       0.0000000000000    
  6.0000000000000       0.0000000000000    
  6.4000000000000       0.0000000000000    
  6.8000000000000       0.0000000000000    
  7.2000000000000       0.0000000000000    
  7.6000000000000       0.0000000000000    
  8.0000000000000       0.0000000000000    
  8.4000000000000       0.0000000000000    
  8.8000000000000       0.0000000000000    
  9.2000000000000       0.0000000000000    
  9.6000000000000       2.5046578478410    
  10.000000000000       0.0000000000000    
  10.400000000000       0.0000000000000    
  10.800000000000       0.0000000000000    
  11.200000000000       0.0000000000000    
  11.600000000000       0.0000000000000    
  12.000000000000       0.0000000000000    
  12.400000000000       0.0000000000000    
  12.800000000000       0.0000000000000    
  13.200000000000       0.0000000000000    
  13.600000000000       5.0103115699484    
  14.000000000000       5.0177282752462    
  14.400000000000       10.060480559042    
  14.800000000000       7.5195087970709    
  15.200000000000       10.068016316236    
  15.600000000000       5.0325688876008    
  16.000000000000       17.555190187805    
  16.400000000000       12.489341112071    
  16.800000000000       2.5176677892488    
  17.200000000000       10.038269343624    
  17.600000000000       7.4666877296951    
  18.000000000000       7.5158089886599    
  18.400000000000       15.001258470918    
  18.800000000000       17.539313979492    
  19.200000000000       12.512668582868    
  19.600000000000       5.0263260885672    
  20.000000000000       2.5081583433977    
ZONE T= "Xw:     39.9300      Yw:     22.3100      Rw:    0.100000      Zwbot:     10.5000      Zwtop:     11.0000       Specie:  1 "
 0.40000000000000       0.0000000000000    
 0.80000000000000       0.0000000000000    
  1.2000000000000       0.0000000000000    
  1.6000000000000       0.0000000000000    
  2.0000000000000       0.0000000000000    
  2.4000000000000       0.0000000000000    
  2.8000000000000       0.0000000000000    
  3.2000000000000       0.0000000000000    
  3.6000000000000       0.0000000000000    
  4.0000000000000       0.0000000000000    
  4.4000000000000       0.0000000000000    
  4.8000000000000       0.0000000000000    
  5.2000000000000       0.0000000000000    
  5.6000000000000       2.4862568191083    
  6.0000000000000       5.0078375816543    
  6.4000000000000       0.0000000000000    
  6.8000000000000       12.501036658589    
  7.2000000000000       9.9675371617906    
  7.6000000000000       24.962680782858    
  8.0000000000000       27.534911992796    
  8.4000000000000       37.358984336963    
  8.8000000000000       27.466250938050    
  9.2000000000000       37.608968201391    
  9.6000000000000       22.561836214181    
  10.000000000000       30.016125141035    
  10.400000000000       54.993515700252    
  10.800000000000       37.513970298703    
  11.200000000000       35.013118978468    
  11.600000000000       30.015892599425    
  12.000000000000       44.977995203358    
  12.400000000000       42.400006181824    
  12.800000000000       34.979790513062    
  13.200000000000       27.450377681371    
  13.600000000000       42.618036665887    
  14.000000000000       22.557596877433    
  14.400000000000       10.032813676834    
  14.800000000000       9.9562381750041    
  15.200000000000       12.479908008723    
  15.600000000000       14.941548348043    
  16.000000000000       9.9791919169192    
  16.400000000000       7.5141182202980    
  16.800000000000       0.0000000000000    
  17.200000000000       15.025669427377    
  17.600000000000       9.9798708744076    
  18.000000000000       10.062894599350    
  18.400000000000       2.5081583433977    
  18.800000000000       0.0000000000000    
  19.200000000000       7.5539489162850    
  19.600000000000       0.0000000000000    
  20.000000000000       0.0000000000000    
ZONE T= "Xw:     40.0300      Yw:     22.4100      Rw:    0.100000      Zwbot:     7.60000      Zwtop:     8.10000       Specie:  1 "
 0.40000000000000       0.0000000000000    
 0.80000000000000       0.0000000000000    
  1.2000000000000       0.0000000000000    
  1.6000000000000       0.0000000000000    
  2.0000000000000       0.0000000000000    
  2.4000000000000       0.0000000000000    
  2.8000000000000       0.0000000000000    
  3.2000000000000       2.5074320201191    
  3.6000000000000       5.0148640402381    
  4.0000000000000       2.5074320201191    
  4.4000000000000       0.0000000000000    
  4.8000000000000       2.4939615915223    
  5.2000000000000       5.0300258969782    
  5.6000000000000       17.568608662289    
  6.0000000000000       10.044621173788    
  6.4000000000000       5.0261682419362    
  6.8000000000000       7.5191806174852    
  7.2000000000000       22.502247935679    
  7.6000000000000       12.548356443136    
  8.0000000000000       17.503854996086    
  8.4000000000000       32.576338294571    
  8.8000000000000       20.076937802242    
  9.2000000000000       25.021205958986    
  9.6000000000000       42.614140997555    
  10.000000000000       40.189842648147    
  10.400000000000       47.458598987471    
  10.800000000000       24.926493732594    
  11.200000000000       37.441967709293    
  11.600000000000       52.534243657131    
  12.000000000000       57.401308302967    
  12.400000000000       49.955658372199    
  12.800000000000       55.041649347121    
  13.200000000000       44.933147211175    
  13.600000000000       42.472471804704    
  14.000000000000       32.392663103737    
  14.400000000000       17.465270584477    
  14.800000000000       20.007572005569    
  15.200000000000       30.086021817835    
  15.600000000000       9.9424628411019    
  16.000000000000       0.0000000000000    
  16.400000000000       14.995441395627    
  16.800000000000       37.445280969127    
  17.200000000000       14.929761381713    
  17.600000000000       7.4976824735724    
  18.000000000000       7.4548146908463    
  18.400000000000       7.4947089056918    
  18.800000000000       2.4898479786014    
  19.200000000000       10.015626257010    
  19.600000000000       20.076809978163    
  20.000000000000       5.0040024997749    
ZONE T= "Xw:     39.9300      Yw:     22.4100      Rw:    0.100000      Zwbot:     4.50000      Zwtop:     5.00000       Specie:  1 "
 0.40000000000000       0.0000000000000    
 0.80000000000000       0.0000000000000    
  1.2000000000000       0.0000000000000    
  1.6000000000000       0.0000000000000    
  2.0000000000000       0.0000000000000    
  2.4000000000000       0.0000000000000    
  2.8000000000000       0.0000000000000    
  3.2000000000000       0.0000000000000    
  3.6000000000000       0.0000000000000    
  4.0000000000000       0.0000000000000    
  4.4000000000000       4.9984490822507    
  4.8000000000000       5.0311921317808    
  5.2000000000000       10.011893287832    
  5.6000000000000       4.9960297182969    
  6.0000000000000       4.9782817920972    
  6.4000000000000       9.9245681876015    
  6.8000000000000       12.520766622885    
  7.2000000000000       22.502535216262    
  7.6000000000000       47.571582600405    
  8.0000000000000       25.085271433276    
  8.4000000000000       52.567013546503    
  8.8000000000000       19.979239305210    
  9.2000000000000       44.930474269503    
  9.6000000000000       34.918876145806    
  10.000000000000       37.432159432081    
  10.400000000000       22.468907536432    
  10.800000000000       32.535236723052    
  11.200000000000       25.032038287190    
  11.600000000000       44.934650045890    
  12.000000000000       22.475083441678    
  12.400000000000       24.933110744508    
  12.800000000000       29.912177133439    
  13.200000000000       12.490064130546    
  13.600000000000       30.041253056433    
  14.000000000000       25.060379602775    
  14.400000000000       24.954114909770    
  14.800000000000       25.036345675899    
  15.200000000000       27.418705207321    
  15.600000000000       24.869676949515    
  16.000000000000       2.4930642036688    
  16.400000000000       20.135798793707    
  16.800000000000       22.519734729896    
  17.200000000000       22.568342676506    
  17.600000000000       10.028020310557    
  18.000000000000       0.0000000000000    
  18.400000000000       15.049821246200    
  18.800000000000       0.0000000000000    
  19.200000000000       5.0216107082660    
  19.600000000000       2.5146836162343    
  20.000000000000       0.0000000000000    
ZONE T= "Xw:     39.8300      Yw:     28.4100      Rw:    0.100000      Zwbot:     16.5000      Zwtop:     17.0000       Specie:  1 "
 0.40000000000000       0.0000000000000    
 0.80000000000000       0.0000000000000    
  1.2000000000000       0.0000000000000    
  1.6000000000000       0.0000000000000    
  2.0000000000000       0.0000000000000    
  2.4000000000000       0.0000000000000    
  2.8000000000000       0.0000000000000    
  3.2000000000000       0.0000000000000    
  3.6000000000000       0.0000000000000    
  4.0000000000000       2.5147742409307    
  4.4000000000000       7.4865261477990    
  4.8000000000000       4.9910174318660    
  5.2000000000000       7.4508438760757    
  5.6000000000000       0.0000000000000    
  6.0000000000000       2.5147742409307    
  6.4000000000000       2.5008412285474    
  6.8000000000000       4.9995951711560    
  7.2000000000000       5.0195348837209    
  7.6000000000000       12.466785059098    
  8.0000000000000       9.9160028328998    
  8.4000000000000       19.788631292999    
  8.8000000000000       17.533484005494    
  9.2000000000000       17.542810830124    
  9.6000000000000       19.950608051564    
  10.000000000000       30.022209323685    
  10.400000000000       19.961294847059    
  10.800000000000       49.788004610111    
  11.200000000000       32.482481093925    
  11.600000000000       22.269382011472    
  12.000000000000       15.031304468496    
  12.400000000000       17.474029625726    
  12.800000000000       17.379630100158    
  13.200000000000       17.484696899043    
  13.600000000000       12.470187073526    
  14.000000000000       35.109691873255    
  14.400000000000       35.129272668392    
  14.800000000000       2.4836298348667    
  15.200000000000       7.5658443881225    
  15.600000000000       10.005835101575    
  16.000000000000       7.3828660316661    
  16.400000000000       14.999784090302    
  16.800000000000       4.9851828725030    
  17.200000000000       12.452816382289    
  17.600000000000       2.4962306288801    
  18.000000000000       2.5166464981679    
  18.400000000000       2.4734539295278    
  18.800000000000       2.5102804383686    
  19.200000000000       5.0440361970487    
  19.600000000000       2.4862983100859    
  20.000000000000       0.0000000000000    
ZONE T= "Xw:     39.9300      Yw:     28.4100      Rw:    0.100000      Zwbot:     13.5000      Zwtop:     14.0000       Specie:  1 "
 0.40000000000000       0.0000000000000    
 0.80000000000000       0.0000000000000    
  1.2000000000000       0.0000000000000    
  1.6000000000000       0.0000000000000    
  2.0000000000000       0.0000000000000    
  2.4000000000000       0.0000000000000    
  2.8000000000000       0.0000000000000    
  3.2000000000000       0.0000000000000    
  3.6000000000000       0.0000000000000    
  4.0000000000000       0.0000000000000    
  4.4000000000000       0.0000000000000    
  4.8000000000000       0.0000000000000    
  5.2000000000000       0.0000000000000    
  5.6000000000000       0.0000000000000    
  6.0000000000000       0.0000000000000    
  6.4000000000000       0.0000000000000    
  6.8000000000000       0.0000000000000    
  7.2000000000000       0.0000000000000    
  7.6000000000000       0.0000000000000    
  8.0000000000000       0.0000000000000    
  8.4000000000000       0.0000000000000    
  8.8000000000000       0.0000000000000    
  9.2000000000000       0.0000000000000    
  9.6000000000000       0.0000000000000    
  10.000000000000       0.0000000000000    
  10.400000000000       2.4951692455524    
  10.800000000000       2.4951692455524    
  11.200000000000       4.9903384911048    
  11.600000000000       2.4951692455524    
  12.000000000000       0.0000000000000    
  12.400000000000       2.4951692455524    
  12.800000000000       2.4951692455524    
  13.200000000000       2.4951692455524    
  13.600000000000       0.0000000000000    
  14.000000000000       5.0049366874129    
  14.400000000000       5.0195348837209    
  14.800000000000       14.886836844349    
  15.200000000000       0.0000000000000    
  15.600000000000       0.0000000000000    
  16.000000000000       0.0000000000000    
  16.400000000000       0.0000000000000    
  16.800000000000       0.0000000000000    
  17.200000000000       0.0000000000000    
  17.600000000000       12.512693181897    
  18.000000000000       5.0029578210950    
  18.400000000000       2.5097674418605    
  18.800000000000       9.9827618382160    
  19.200000000000       17.469889471221    
  19.600000000000       4.9726526665999    
  20.000000000000       0.0000000000000    
ZONE T= "Xw:     39.8300      Yw:     28.4100      Rw:    0.100000      Zwbot:     10.6000      Zwtop:     11.2000       Specie:  1 "
 0.40000000000000       0.0000000000000    
 0.80000000000000       0.0000000000000    
  1.2000000000000       0.0000000000000    
  1.6000000000000       2.5336748374701    
  2.0000000000000       0.0000000000000    
  2.4000000000000       0.0000000000000    
  2.8000000000000       4.9409500784679    
  3.2000000000000       2.4704750392340    
  3.6000000000000       20.025218296117    
  4.0000000000000       12.417721530794    
  4.4000000000000       14.935223908020    
  4.8000000000000       7.4964179997749    
  5.2000000000000       4.9852784106311    
  5.6000000000000       20.028948024259    
  6.0000000000000       15.016530337409    
  6.4000000000000       29.989390820641    
  6.8000000000000       37.647592835360    
  7.2000000000000       40.006199933096    
  7.6000000000000       37.485056068820    
  8.0000000000000       40.128072070238    
  8.4000000000000       40.149731778192    
  8.8000000000000       52.797775568037    
  9.2000000000000       57.671143523143    
  9.6000000000000       44.957910380982    
  10.000000000000       52.486660953912    
  10.400000000000       59.971844307503    
  10.800000000000       19.946543883945    
  11.200000000000       27.495261932801    
  11.600000000000       25.090595847127    
  12.000000000000       35.185396379187    
  12.400000000000       9.9943156926283    
  12.800000000000       32.303832696680    
  13.200000000000       47.511736397847    
  13.600000000000       12.519912618928    
  14.000000000000       9.9238731781323    
  14.400000000000       7.5339494401692    
  14.800000000000       25.076781169415    
  15.200000000000       24.953446643627    
  15.600000000000       12.626561048409    
  16.000000000000       20.005214688923    
  16.400000000000       17.392379905249    
  16.800000000000       9.9540637744279    
  17.200000000000       27.637350521008    
  17.600000000000       10.047345028911    
  18.000000000000       4.9939351752950    
  18.400000000000       5.0459602115503    
  18.800000000000       7.5208239636533    
  19.200000000000       4.9955397746177    
  19.600000000000       9.9592761791280    
  20.000000000000       0.0000000000000    
ZONE T= "Xw:     39.8300      Yw:     28.4100      Rw:    0.100000      Zwbot:     7.60000      Zwtop:     8.30000       Specie:  1 "
 0.40000000000000       0.0000000000000    
 0.80000000000000       0.0000000000000    
  1.2000000000000       0.0000000000000    
  1.6000000000000       0.0000000000000    
  2.0000000000000       2.4977698873089    
  2.4000000000000       0.0000000000000    
  2.8000000000000       7.4588949302578    
  3.2000000000000       7.3634063681646    
  3.6000000000000       19.889981304391    
  4.0000000000000       2.4922818171665    
  4.4000000000000       5.0022518230367    
  4.8000000000000       9.8556881853312    
  5.2000000000000       27.427835754674    
  5.6000000000000       19.898125012648    
  6.0000000000000       17.281976324376    
  6.4000000000000       14.916517447440    
  6.8000000000000       22.369357431016    
  7.2000000000000       14.835713255912    
  7.6000000000000       27.430248139193    
  8.0000000000000       42.583237573205    
  8.4000000000000       32.578885789279    
  8.8000000000000       34.936974758658    
  9.2000000000000       25.118554536960    
  9.6000000000000       25.055862038272    
  10.000000000000       22.551914390141    
  10.400000000000       32.563631850321    
  10.800000000000       12.433268299427    
  11.200000000000       57.584685071012    
  11.600000000000       22.487758498574    
  12.000000000000       22.458225129805    
  12.400000000000       25.088927459434    
  12.800000000000       32.413190802163    
  13.200000000000       42.373574944017    
  13.600000000000       37.507795591543    
  14.000000000000       49.929656110449    
  14.400000000000       30.052412006622    
  14.800000000000       47.590916805595    
  15.200000000000       65.077120709428    
  15.600000000000       65.206223216942    
  16.000000000000       77.601835546099    
  16.400000000000       55.021060036301    
  16.800000000000       37.461311771770    
  17.200000000000       54.967859643444    
  17.600000000000       54.925269255011    
  18.000000000000       44.904455794275    
  18.400000000000       42.539816003745    
  18.800000000000       35.086328847700    
  19.200000000000       22.478563461376    
  19.600000000000       15.012482537387    
  20.000000000000       14.897385599280    
ZONE T= "Xw:     39.8300      Yw:     28.5100      Rw:    0.100000      Zwbot:     4.50000      Zwtop:     5.00000       Specie:  1 "
 0.40000000000000       0.0000000000000    
 0.80000000000000       0.0000000000000    
  1.2000000000000       25.037778936457    
  1.6000000000000       12.558543152573    
  2.0000000000000       2.4925914362515    
  2.4000000000000       12.595394623755    
  2.8000000000000       35.171696160851    
  3.2000000000000       25.049789018910    
  3.6000000000000       20.174828102025    
  4.0000000000000       25.018252354394    
  4.4000000000000       17.514869232284    
  4.8000000000000       34.869352548405    
  5.2000000000000       39.905755020069    
  5.6000000000000       22.429426984039    
  6.0000000000000       37.368454842435    
  6.4000000000000       64.731760904638    
  6.8000000000000       39.879165335498    
  7.2000000000000       32.448177044034    
  7.6000000000000       37.533445720005    
  8.0000000000000       49.828132887371    
  8.4000000000000       32.439478622308    
  8.8000000000000       14.995863584368    
  9.2000000000000       9.9330486211007    
  9.6000000000000       22.532015444438    
  10.000000000000       7.5356610253733    
  10.400000000000       9.9982139097534    
  10.800000000000       17.490221665936    
  11.200000000000       10.008041769215    
  11.600000000000       37.687144408604    
  12.000000000000       17.503285275058    
  12.400000000000       22.482733110027    
  12.800000000000       20.024129472589    
  13.200000000000       4.9963573815960    
  13.600000000000       10.046973259932    
  14.000000000000       7.4631105399855    
  14.400000000000       19.809352786507    
  14.800000000000       4.9673882112947    
  15.200000000000       2.5047371452937    
  15.600000000000       0.0000000000000    
  16.000000000000       0.0000000000000    
  16.400000000000       2.4811955704535    
  16.800000000000       0.0000000000000    
  17.200000000000       2.4811955704535    
  17.600000000000       0.0000000000000    
  18.000000000000       0.0000000000000    
  18.400000000000       0.0000000000000    
  18.800000000000       0.0000000000000    
  19.200000000000       0.0000000000000    
  19.600000000000       0.0000000000000    
  20.000000000000       0.0000000000000    
ZONE T= "Xw:     39.5300      Yw:     34.0100      Rw:    0.100000      Zwbot:     16.7000      Zwtop:     17.3000       Specie:  1 "
 0.40000000000000       17.471725257420    
 0.80000000000000       0.0000000000000    
  1.2000000000000       0.0000000000000    
  1.6000000000000       0.0000000000000    
  2.0000000000000       0.0000000000000    
  2.4000000000000       2.5078171475774    
  2.8000000000000       2.5047513287909    
  3.2000000000000       2.4959607510600    
  3.6000000000000       15.042891686691    
  4.0000000000000       7.5369153172402    
  4.4000000000000       5.0065056527700    
  4.8000000000000       12.486030708920    
  5.2000000000000       12.422755645091    
  5.6000000000000       14.992234925207    
  6.0000000000000       4.9932799961198    
  6.4000000000000       20.040959639772    
  6.8000000000000       12.570647835395    
  7.2000000000000       5.0006431087023    
  7.6000000000000       22.470203849722    
  8.0000000000000       25.045481743836    
  8.4000000000000       2.5317292535502    
  8.8000000000000       7.5104282136480    
  9.2000000000000       17.496673929718    
  9.6000000000000       34.841742500405    
  10.000000000000       7.4870728070986    
  10.400000000000       24.949529516601    
  10.800000000000       14.983930776064    
  11.200000000000       22.413938181109    
  11.600000000000       27.443106359613    
  12.000000000000       12.520935045427    
  12.400000000000       17.536362376883    
  12.800000000000       14.921293274498    
  13.200000000000       24.976477778111    
  13.600000000000       7.4788352098985    
  14.000000000000       20.093774654122    
  14.400000000000       15.075037565963    
  14.800000000000       25.100744731215    
  15.200000000000       30.149753508466    
  15.600000000000       15.086749934202    
  16.000000000000       20.030138365450    
  16.400000000000       7.4748299354500    
  16.800000000000       20.104678740413    
  17.200000000000       17.632053516992    
  17.600000000000       7.5284172513415    
  18.000000000000       2.5281780482356    
  18.400000000000       2.5281780482356    
  18.800000000000       0.0000000000000    
  19.200000000000       2.4979307818244    
  19.600000000000       2.5280995083122    
  20.000000000000       7.5581254052904    
ZONE T= "Xw:     39.5300      Yw:     34.1100      Rw:    0.100000      Zwbot:     13.5000      Zwtop:     14.0000       Specie:  1 "
 0.40000000000000       0.0000000000000    
 0.80000000000000       0.0000000000000    
  1.2000000000000       0.0000000000000    
  1.6000000000000       0.0000000000000    
  2.0000000000000       0.0000000000000    
  2.4000000000000       0.0000000000000    
  2.8000000000000       0.0000000000000    
  3.2000000000000       2.4885312063290    
  3.6000000000000       7.4655936189869    
  4.0000000000000       2.4960216945672    
  4.4000000000000       0.0000000000000    
  4.8000000000000       0.0000000000000    
  5.2000000000000       2.4999416559690    
  5.6000000000000       2.4960216945672    
  6.0000000000000       4.9866119515268    
  6.4000000000000       2.4947451204139    
  6.8000000000000       2.4958232769503    
  7.2000000000000       4.9837336622259    
  7.6000000000000       24.909030550857    
  8.0000000000000       4.9615045882132    
  8.4000000000000       0.0000000000000    
  8.8000000000000       0.0000000000000    
  9.2000000000000       9.9623189524780    
  9.6000000000000       7.5314249761997    
  10.000000000000       17.417822544727    
  10.400000000000       12.507834781596    
  10.800000000000       7.4566512698482    
  11.200000000000       19.947865101558    
  11.600000000000       2.4984318718753    
  12.000000000000       12.443948019028    
  12.400000000000       9.9090169843904    
  12.800000000000       14.969152816879    
  13.200000000000       22.379708189299    
  13.600000000000       12.552419175533    
  14.000000000000       12.511960135391    
  14.400000000000       14.984847125042    
  14.800000000000       14.979975195017    
  15.200000000000       7.5097636483456    
  15.600000000000       12.572024302168    
  16.000000000000       12.573010422965    
  16.400000000000       7.5686913539784    
  16.800000000000       10.073644828963    
  17.200000000000       7.5234149415895    
  17.600000000000       17.581690244394    
  18.000000000000       12.444619407865    
  18.400000000000       12.533506232983    
  18.800000000000       17.548699486092    
  19.200000000000       12.560391386457    
  19.600000000000       20.097943322184    
  20.000000000000       25.132779159224    
ZONE T= "Xw:     39.4300      Yw:     34.0100      Rw:    0.100000      Zwbot:     10.5000      Zwtop:     11.1000       Specie:  1 "
 0.40000000000000       47.733810609844    
 0.80000000000000       7.4767880353355    
  1.2000000000000       9.9675521247622    
  1.6000000000000       22.524056483337    
  2.0000000000000       20.001675652013    
  2.4000000000000       19.954513250490    
  2.8000000000000       12.473047194636    
  3.2000000000000       7.4599400828683    
  3.6000000000000       15.035900526671    
  4.0000000000000       15.106196299084    
  4.4000000000000       10.061118434577    
  4.8000000000000       37.627550262485    
  5.2000000000000       32.658299246960    
  5.6000000000000       20.118983588817    
  6.0000000000000       47.624255907898    
  6.4000000000000       47.691774544141    
  6.8000000000000       32.602558561699    
  7.2000000000000       42.482964439024    
  7.6000000000000       32.584630286354    
  8.0000000000000       57.767548018370    
  8.4000000000000       32.448502002861    
  8.8000000000000       17.643136935821    
  9.2000000000000       22.571209717184    
  9.6000000000000       17.570444266313    
  10.000000000000       22.606999300065    