 TITLE="TECPLOT input file: Breakthrough Curves" 
 VARIABLES="Time" "Concentrations" 
ZONE T= "Xw:     39.9300      Yw:     22.4100      Rw:    0.100000      Zwbot:     16.5000      Zwtop:     17.0000       Specie:  1 "
  0.0000000000000       0.0000000000000    
  0.0000000000000       0.0000000000000    
  0.0000000000000       0.0000000000000    
  0.0000000000000       0.0000000000000    
  0.0000000000000       0.0000000000000    
  0.0000000000000       0.0000000000000    
  0.0000000000000       0.0000000000000    
  0.0000000000000       0.0000000000000    
  0.0000000000000       0.0000000000000    
  0.0000000000000       0.0000000000000    
  0.0000000000000       0.0000000000000    
  0.0000000000000       0.0000000000000    
  0.0000000000000       0.0000000000000    
  0.0000000000000       0.0000000000000    
  0.0000000000000       0.0000000000000    
  0.0000000000000       0.0000000000000    
  0.0000000000000       0.0000000000000    
  0.0000000000000       0.0000000000000    
  0.0000000000000       0.0000000000000    
  0.0000000000000       0.0000000000000    
  0.0000000000000       0.0000000000000    
  0.0000000000000       0.0000000000000    
  0.0000000000000       0.0000000000000    
  0.0000000000000       0.0000000000000    
  0.0000000000000       0.0000000000000    
  0.0000000000000       0.0000000000000    
  0.0000000000000       0.0000000000000    
  0.0000000000000       0.0000000000000    
  0.0000000000000       0.0000000000000    
  0.0000000000000       0.0000000000000    
  0.0000000000000       0.0000000000000    
  0.0000000000000       0.0000000000000    
  0.0000000000000       0.0000000000000    
  0.0000000000000       0.0000000000000    
  0.0000000000000       0.0000000000000    
  0.0000000000000       0.0000000000000    
  0.0000000000000       0.0000000000000    
  0.0000000000000       0.0000000000000    
  0.0000000000000       0.0000000000000    
  0.0000000000000       0.0000000000000    
  0.0000000000000       0.0000000000000    
  0.0000000000000       0.0000000000000    
  0.0000000000000       0.0000000000000    
  0.0000000000000       0.0000000000000    
  0.0000000000000       0.0000000000000    
  0.0000000000000       0.0000000000000    
  0.0000000000000       0.0000000000000    
  0.0000000000000       0.0000000000000    
  0.0000000000000       0.0000000000000    
  0.0000000000000       0.0000000000000    
ZONE T= "Xw:     39.9300      Yw:     22.4100      Rw:    0.100000      Zwbot:     13.5000      Zwtop:     14.0000       Specie:  1 "
 0.40000000000000       0.0000000000000    
 0.80000000000000       0.0000000000000    
  1.2000000000000       0.0000000000000    
  1.6000000000000       0.0000000000000    
  2.0000000000000       0.0000000000000    
  2.4000000000000       0.0000000000000    
  2.8000000000000       0.0000000000000    
  3.2000000000000       0.0000000000000    
  3.6000000000000       0.0000000000000    
  4.0000000000000       0.0000000000000    
  4.4000000000000       0.0000000000000    
  4.8000000000000       0.0000000000000    
  5.2000000000000       0.0000000000000    
  5.6000000000000       0.0000000000000    
  6.0000000000000       0.0000000000000    
  6.4000000000000       0.0000000000000    
  6.8000000000000       0.0000000000000    
  7.2000000000000       0.0000000000000    
  7.6000000000000       0.0000000000000    
  8.0000000000000       0.0000000000000    
  8.4000000000000       4.9977420752372    
  8.8000000000000       2.4988710376186    
  9.2000000000000       0.0000000000000    
  9.6000000000000       2.4988710376186    
  10.000000000000       0.0000000000000    
  10.400000000000       0.0000000000000    
  10.800000000000       0.0000000000000    
  11.200000000000       0.0000000000000    
  11.600000000000       0.0000000000000    
  12.000000000000       0.0000000000000    
  12.400000000000       0.0000000000000    
  12.800000000000       0.0000000000000    
  13.200000000000       0.0000000000000    
  13.600000000000       0.0000000000000    
  14.000000000000       2.5059758071562    
  14.400000000000       2.4914762213206    
  14.800000000000       0.0000000000000    
  15.200000000000       0.0000000000000    
  15.600000000000       0.0000000000000    
  16.000000000000       2.4982961900561    
  16.400000000000       2.4914762213206    
  16.800000000000       0.0000000000000    
  17.200000000000       10.023903228625    
  17.600000000000       7.4507849296423    
  18.000000000000       2.4795430900186    
  18.400000000000       5.0119516143124    
  18.800000000000       2.4982961900561    
  19.200000000000       2.5059758071562    
  19.600000000000       0.0000000000000    
  20.000000000000       0.0000000000000    
ZONE T= "Xw:     39.9300      Yw:     22.3100      Rw:    0.100000      Zwbot:     10.5000      Zwtop:     11.0000       Specie:  1 "
 0.40000000000000       0.0000000000000    
 0.80000000000000       0.0000000000000    
  1.2000000000000       0.0000000000000    
  1.6000000000000       0.0000000000000    
  2.0000000000000       0.0000000000000    
  2.4000000000000       0.0000000000000    
  2.8000000000000       0.0000000000000    
  3.2000000000000       0.0000000000000    
  3.6000000000000       0.0000000000000    
  4.0000000000000       0.0000000000000    
  4.4000000000000       2.4872604256444    
  4.8000000000000       2.4872604256444    
  5.2000000000000       4.9745208512887    
  5.6000000000000       4.9818889722518    
  6.0000000000000       2.4831824303750    
  6.4000000000000       0.0000000000000    
  6.8000000000000       19.972814388568    
  7.2000000000000       17.477088471563    
  7.6000000000000       20.061567690537    
  8.0000000000000       25.045584933261    
  8.4000000000000       22.542505123277    
  8.8000000000000       12.529753455125    
  9.2000000000000       24.943755895665    
  9.6000000000000       15.045676694617    
  10.000000000000       12.530198918209    
  10.400000000000       10.021398088016    
  10.800000000000       15.053102264589    
  11.200000000000       12.501508413250    
  11.600000000000       34.853234040567    
  12.000000000000       29.918578825626    
  12.400000000000       34.924377850921    
  12.800000000000       30.097252816601    
  13.200000000000       22.506500633961    
  13.600000000000       12.494711047873    
  14.000000000000       15.001535466177    
  14.400000000000       12.392806769829    
  14.800000000000       14.955599853199    
  15.200000000000       12.492441845953    
  15.600000000000       14.983139676838    
  16.000000000000       9.9637879668792    
  16.400000000000       14.977161923957    
  16.800000000000       5.0076943937951    
  17.200000000000       7.4630113667461    
  17.600000000000       15.086984729446    
  18.000000000000       12.494726830795    
  18.400000000000       5.0057426408065    
  18.800000000000       0.0000000000000    
  19.200000000000       0.0000000000000    
  19.600000000000       2.4930033242982    
  20.000000000000       2.4930033242982    
ZONE T= "Xw:     40.0300      Yw:     22.4100      Rw:    0.100000      Zwbot:     7.60000      Zwtop:     8.10000       Specie:  1 "
 0.40000000000000       0.0000000000000    
 0.80000000000000       0.0000000000000    
  1.2000000000000       0.0000000000000    
  1.6000000000000       0.0000000000000    
  2.0000000000000       0.0000000000000    
  2.4000000000000       0.0000000000000    
  2.8000000000000       0.0000000000000    
  3.2000000000000       0.0000000000000    
  3.6000000000000       0.0000000000000    
  4.0000000000000       0.0000000000000    
  4.4000000000000       0.0000000000000    
  4.8000000000000       0.0000000000000    
  5.2000000000000       7.5718456313002    
  5.6000000000000       7.5161856425332    
  6.0000000000000       10.062771804060    
  6.4000000000000       7.4952884287160    
  6.8000000000000       15.086516213227    
  7.2000000000000       5.0318581085429    
  7.6000000000000       4.9961221438161    
  8.0000000000000       17.548301606185    
  8.4000000000000       39.933130488133    
  8.8000000000000       24.911898321236    
  9.2000000000000       30.072499333141    
  9.6000000000000       29.957707365568    
  10.000000000000       42.472009596094    
  10.400000000000       42.486188614555    
  10.800000000000       49.774952072035    
  11.200000000000       37.399194059609    
  11.600000000000       9.9965052078159    
  12.000000000000       52.434825144993    
  12.400000000000       60.116762598120    
  12.800000000000       42.572844093046    
  13.200000000000       30.021164001713    
  13.600000000000       30.175307994404    
  14.000000000000       34.985804055721    
  14.400000000000       49.988666209101    
  14.800000000000       55.080750485668    
  15.200000000000       30.084397619587    
  15.600000000000       25.117647560353    
  16.000000000000       27.573267223767    
  16.400000000000       10.059230278411    
  16.800000000000       10.054518769849    
  17.200000000000       17.589305149492    
  17.600000000000       17.510415340805    
  18.000000000000       19.982704020412    
  18.400000000000       7.5408194779458    
  18.800000000000       9.8868419009636    
  19.200000000000       4.9755847850638    
  19.600000000000       5.0481305150177    
  20.000000000000       0.0000000000000    
ZONE T= "Xw:     39.9300      Yw:     22.4100      Rw:    0.100000      Zwbot:     4.50000      Zwtop:     5.00000       Specie:  1 "
 0.40000000000000       0.0000000000000    
 0.80000000000000       0.0000000000000    
  1.2000000000000       0.0000000000000    
  1.6000000000000       0.0000000000000    
  2.0000000000000       0.0000000000000    
  2.4000000000000       0.0000000000000    
  2.8000000000000       0.0000000000000    
  3.2000000000000       0.0000000000000    
  3.6000000000000       0.0000000000000    
  4.0000000000000       0.0000000000000    
  4.4000000000000       2.4819974921684    
  4.8000000000000       7.4422483001054    
  5.2000000000000       14.945533485336    
  5.6000000000000       22.534608260999    
  6.0000000000000       37.574265759134    
  6.4000000000000       32.569521783428    
  6.8000000000000       22.491785919911    
  7.2000000000000       22.608126008281    
  7.6000000000000       20.033917598781    
  8.0000000000000       25.007972325315    
  8.4000000000000       30.011229126734    
  8.8000000000000       32.437616244718    
  9.2000000000000       24.956286039258    
  9.6000000000000       40.040754320980    
  10.000000000000       27.525736723928    
  10.400000000000       30.060041718767    
  10.800000000000       37.633240492822    
  11.200000000000       32.589610227243    
  11.600000000000       37.552412360017    
  12.000000000000       35.047359519039    
  12.400000000000       42.612310400248    
  12.800000000000       25.052221913071    
  13.200000000000       17.531276544132    
  13.600000000000       5.0119357607104    
  14.000000000000       14.984750691935    
  14.400000000000       2.4957179177984    
  14.800000000000       2.5194526668252    
  15.200000000000       2.5102037022163    
  15.600000000000       5.0204074044327    
  16.000000000000       7.5301513607580    
  16.400000000000       2.5020734589820    
  16.800000000000       5.0120472882528    
  17.200000000000       5.0236211261902    
  17.600000000000       2.5136472969193    
  18.000000000000       4.9740972884284    
  18.400000000000       0.0000000000000    
  18.800000000000       2.4901614872827    
  19.200000000000       2.4901614872827    
  19.600000000000       0.0000000000000    
  20.000000000000       0.0000000000000    
ZONE T= "Xw:     39.8300      Yw:     28.4100      Rw:    0.100000      Zwbot:     16.5000      Zwtop:     17.0000       Specie:  1 "
 0.40000000000000       0.0000000000000    
 0.80000000000000       0.0000000000000    
  1.2000000000000       0.0000000000000    
  1.6000000000000       0.0000000000000    
  2.0000000000000       0.0000000000000    
  2.4000000000000       0.0000000000000    
  2.8000000000000       0.0000000000000    
  3.2000000000000       0.0000000000000    
  3.6000000000000       2.4677504481681    
  4.0000000000000       0.0000000000000    
  4.4000000000000       4.9355008963363    
  4.8000000000000       0.0000000000000    
  5.2000000000000       5.0717836952483    
  5.6000000000000       7.6076755428724    
  6.0000000000000       5.0361395753542    
  6.4000000000000       2.5180697876771    
  6.8000000000000       12.490935304468    
  7.2000000000000       12.575673718771    
  7.6000000000000       7.5000551217342    
  8.0000000000000       5.0520441844072    
  8.4000000000000       22.657372017471    
  8.8000000000000       22.395623974903    
  9.2000000000000       7.4451137004038    
  9.6000000000000       20.050533195062    
  10.000000000000       34.894243360544    
  10.400000000000       2.5257176185988    
  10.800000000000       14.909036916841    
  11.200000000000       7.4955802784853    
  11.600000000000       7.5248883089730    
  12.000000000000       10.039988326537    
  12.400000000000       10.049492347924    
  12.800000000000       7.4699004204219    
  13.200000000000       12.548962876174    
  13.600000000000       12.507655322621    
  14.000000000000       25.048941395308    
  14.400000000000       12.553346459838    
  14.800000000000       4.9556733108773    
  15.200000000000       4.9661288583255    
  15.600000000000       17.427664272173    
  16.000000000000       9.8921887611077    
  16.400000000000       24.909670149324    
  16.800000000000       9.9659318625544    
  17.200000000000       7.4417268368845    
  17.600000000000       5.0096198235537    
  18.000000000000       4.9519589239338    
  18.400000000000       7.5089281343472    
  18.800000000000       9.9543274190442    
  19.200000000000       14.892589746027    
  19.600000000000       2.5003929060671    
  20.000000000000       2.5229942768711    
ZONE T= "Xw:     39.9300      Yw:     28.4100      Rw:    0.100000      Zwbot:     13.5000      Zwtop:     14.0000       Specie:  1 "
 0.40000000000000       0.0000000000000    
 0.80000000000000       0.0000000000000    
  1.2000000000000       0.0000000000000    
  1.6000000000000       0.0000000000000    
  2.0000000000000       0.0000000000000    
  2.4000000000000       0.0000000000000    
  2.8000000000000       0.0000000000000    
  3.2000000000000       0.0000000000000    
  3.6000000000000       0.0000000000000    
  4.0000000000000       0.0000000000000    
  4.4000000000000       0.0000000000000    
  4.8000000000000       0.0000000000000    
  5.2000000000000       0.0000000000000    
  5.6000000000000       0.0000000000000    
  6.0000000000000       0.0000000000000    
  6.4000000000000       0.0000000000000    
  6.8000000000000       0.0000000000000    
  7.2000000000000       0.0000000000000    
  7.6000000000000       0.0000000000000    
  8.0000000000000       0.0000000000000    
  8.4000000000000       2.5325817897700    
  8.8000000000000       2.5325817897700    
  9.2000000000000       0.0000000000000    
  9.6000000000000       0.0000000000000    
  10.000000000000       0.0000000000000    
  10.400000000000       0.0000000000000    
  10.800000000000       0.0000000000000    
  11.200000000000       2.5325817897700    
  11.600000000000       5.0651635795399    
  12.000000000000       0.0000000000000    
  12.400000000000       0.0000000000000    
  12.800000000000       0.0000000000000    
  13.200000000000       2.5212067072388    
  13.600000000000       0.0000000000000    
  14.000000000000       2.5344021352103    
  14.400000000000       17.422752553321    
  14.800000000000       0.0000000000000    
  15.200000000000       12.367143710872    
  15.600000000000       0.0000000000000    
  16.000000000000       2.4614842509083    
  16.400000000000       0.0000000000000    
  16.800000000000       0.0000000000000    
  17.200000000000       0.0000000000000    
  17.600000000000       0.0000000000000    
  18.000000000000       0.0000000000000    
  18.400000000000       2.5377172395117    
  18.800000000000       10.021462427113    
  19.200000000000       2.5235546006903    
  19.600000000000       9.9459792031788    
  20.000000000000       9.9953922697063    
ZONE T= "Xw:     39.8300      Yw:     28.4100      Rw:    0.100000      Zwbot:     10.6000      Zwtop:     11.2000       Specie:  1 "
 0.40000000000000       0.0000000000000    
 0.80000000000000       0.0000000000000    
  1.2000000000000       0.0000000000000    
  1.6000000000000       0.0000000000000    
  2.0000000000000       2.4584611538226    
  2.4000000000000       4.9169223076451    
  2.8000000000000       9.9661008553845    
  3.2000000000000       7.5116141327944    
  3.6000000000000       20.043705012040    
  4.0000000000000       15.077634629319    
  4.4000000000000       7.5458716150386    
  4.8000000000000       19.879898977571    
  5.2000000000000       25.139783138415    
  5.6000000000000       27.387659059744    
  6.0000000000000       32.377530931573    
  6.4000000000000       15.007967423608    
  6.8000000000000       37.295703565561    
  7.2000000000000       27.354227175338    
  7.6000000000000       34.818405568320    
  8.0000000000000       47.512873943609    
  8.4000000000000       19.942893041457    
  8.8000000000000       22.455229437551    
  9.2000000000000       27.509413470781    
  9.6000000000000       22.642742796914    
  10.000000000000       19.934092539917    
  10.400000000000       10.090239262848    
  10.800000000000       27.530279773470    
  11.200000000000       37.363743404245    
  11.600000000000       37.561296881596    
  12.000000000000       40.226298664384    
  12.400000000000       42.518059733826    
  12.800000000000       40.014659332074    
  13.200000000000       32.489072178174    
  13.600000000000       52.493912833229    
  14.000000000000       27.682546372651    
  14.400000000000       25.072952147247    
  14.800000000000       22.555342382408    
  15.200000000000       12.530276402584    
  15.600000000000       5.0190819210581    
  16.000000000000       17.472409401768    
  16.400000000000       20.141397353269    
  16.800000000000       17.557923370821    
  17.200000000000       5.0278227606942    
  17.600000000000       0.0000000000000    
  18.000000000000       4.9853201525102    
  18.400000000000       7.4460232676606    
  18.800000000000       4.9894507416528    
  19.200000000000       2.4796832997923    
  19.600000000000       7.4541396137128    
  20.000000000000       0.0000000000000    
ZONE T= "Xw:     39.8300      Yw:     28.4100      Rw:    0.100000      Zwbot:     7.60000      Zwtop:     8.30000       Specie:  1 "
 0.40000000000000       0.0000000000000    
 0.80000000000000       0.0000000000000    
  1.2000000000000       0.0000000000000    
  1.6000000000000       0.0000000000000    
  2.0000000000000       0.0000000000000    
  2.4000000000000       2.4959136599129    
  2.8000000000000       4.9918273198257    
  3.2000000000000       2.4956155025536    
  3.6000000000000       0.0000000000000    
  4.0000000000000       2.5229942768711    
  4.4000000000000       0.0000000000000    
  4.8000000000000       7.5221370139492    
  5.2000000000000       12.348686640502    
  5.6000000000000       19.944772823759    
  6.0000000000000       42.269370361163    
  6.4000000000000       37.523770768302    
  6.8000000000000       37.403290848560    
  7.2000000000000       35.125657208189    
  7.6000000000000       32.447513131334    
  8.0000000000000       32.319203484543    
  8.4000000000000       29.926973838583    
  8.8000000000000       32.567813078298    
  9.2000000000000       25.114733711539    
  9.6000000000000       24.918949640184    
  10.000000000000       30.017385472351    
  10.400000000000       29.970954664676    
  10.800000000000       49.970439193839    
  11.200000000000       52.547570453387    
  11.600000000000       52.414099200822    
  12.000000000000       77.670846185701    
  12.400000000000       57.693200235858    
  12.800000000000       44.939016080238    
  13.200000000000       52.551117858347    
  13.600000000000       27.501027894154    
  14.000000000000       64.917191642837    
  14.400000000000       37.563402662515    
  14.800000000000       37.509455144723    
  15.200000000000       47.613139041436    
  15.600000000000       32.526422380303    
  16.000000000000       37.369044720605    
  16.400000000000       37.603681362809    
  16.800000000000       42.582286649332    
  17.200000000000       42.444714982834    
  17.600000000000       40.170321829318    
  18.000000000000       40.134556838201    
  18.400000000000       60.041015840093    
  18.800000000000       34.887429681071    
  19.200000000000       27.408743466379    
  19.600000000000       12.577009112176    
  20.000000000000       9.9549830796096    
ZONE T= "Xw:     39.8300      Yw:     28.5100      Rw:    0.100000      Zwbot:     4.50000      Zwtop:     5.00000       Specie:  1 "
 0.40000000000000       15.120576418403    
 0.80000000000000       15.134998683610    
  1.2000000000000       12.588051345172    
  1.6000000000000       4.9813464299433    
  2.0000000000000       25.051662144046    
  2.4000000000000       14.917919345612    
  2.8000000000000       52.543239101356    
  3.2000000000000       32.465240182666    
  3.6000000000000       35.027845993107    
  4.0000000000000       27.549667296786    
  4.4000000000000       47.700870722306    
  4.8000000000000       27.525783215373    
  5.2000000000000       47.403624948628    
  5.6000000000000       45.061992105825    
  6.0000000000000       60.174828619034    
  6.4000000000000       45.038670722483    
  6.8000000000000       27.439574659065    
  7.2000000000000       47.501201740662    
  7.6000000000000       52.529275832586    
  8.0000000000000       34.795624477394    
  8.4000000000000       47.620229310164    
  8.8000000000000       72.370765508689    
  9.2000000000000       40.137202106145    
  9.6000000000000       32.275442202340    
  10.000000000000       29.790843051858    
  10.400000000000       45.263963216547    
  10.800000000000       32.485509800813    
  11.200000000000       17.482160082081    
  11.600000000000       12.507407913625    
  12.000000000000       2.5306850630604    
  12.400000000000       12.542538899950    
  12.800000000000       22.452914219254    
  13.200000000000       17.501267925296    
  13.600000000000       17.440066729090    
  14.000000000000       2.4843490026157    
  14.400000000000       12.612263231819    
  14.800000000000       4.9285063024056    
  15.200000000000       4.9874688113499    
  15.600000000000       0.0000000000000    
  16.000000000000       9.9093166561854    
  16.400000000000       2.4644356996881    
  16.800000000000       7.4449077242727    
  17.200000000000       4.9804720245845    
  17.600000000000       5.0420645116575    
  18.000000000000       2.5160363248964    
  18.400000000000       2.4677504481681    
  18.800000000000       2.4677504481681    
  19.200000000000       0.0000000000000    
  19.600000000000       0.0000000000000    
  20.000000000000       2.5160363248964    
ZONE T= "Xw:     39.5300      Yw:     34.0100      Rw:    0.100000      Zwbot:     16.7000      Zwtop:     17.3000       Specie:  1 "
 0.40000000000000       12.370395400150    
 0.80000000000000       0.0000000000000    
  1.2000000000000       0.0000000000000    
  1.6000000000000       9.9364870113463    
  2.0000000000000       4.9863153934781    
  2.4000000000000       9.9766577025726    
  2.8000000000000       9.8859428177326    
  3.2000000000000       2.4814069513091    
  3.6000000000000       0.0000000000000    
  4.0000000000000       15.021166406533    
  4.4000000000000       12.538125837964    
  4.8000000000000       12.461043553423    
  5.2000000000000       9.9962429158353    
  5.6000000000000       10.072545114295    
  6.0000000000000       12.539188704101    
  6.4000000000000       17.400601834328    
  6.8000000000000       32.408318722850    
  7.2000000000000       12.448699728954    
  7.6000000000000       22.513392240889    
  8.0000000000000       29.921902405074    
  8.4000000000000       32.656926200151    
  8.8000000000000       37.567503869840    
  9.2000000000000       27.378766990304    
  9.6000000000000       7.4503103281741    
  10.000000000000       15.125366392800    
  10.400000000000       2.5335095880030    
  10.800000000000       17.417474157445    
  11.200000000000       9.9771908739252    
  11.600000000000       12.502925518729    
  12.000000000000       12.584182195912    
  12.400000000000       7.5256649551958    
  12.800000000000       25.006316510593    
  13.200000000000       19.982592520679    
  13.600000000000       7.4384468661942    
  14.000000000000       15.158291003303    
  14.400000000000       22.574439448286    
  14.800000000000       10.055776545647    
  15.200000000000       12.568708715983    
  15.600000000000       12.526534517575    
  16.000000000000       12.612745784574    
  16.400000000000       20.021137545090    
  16.800000000000       12.577552364292    
  17.200000000000       15.015755941717    
  17.600000000000       15.005286941119    
  18.000000000000       12.454732935469    
  18.400000000000       0.0000000000000    
  18.800000000000       4.9852901746619    
  19.200000000000       7.5566135007957    
  19.600000000000       9.9945787317179    
  20.000000000000       2.5062184353693    
ZONE T= "Xw:     39.5300      Yw:     34.1100      Rw:    0.100000      Zwbot:     13.5000      Zwtop:     14.0000       Specie:  1 "
 0.40000000000000       0.0000000000000    
 0.80000000000000       0.0000000000000    
  1.2000000000000       0.0000000000000    
  1.6000000000000       0.0000000000000    
  2.0000000000000       7.5663400225702    
  2.4000000000000       2.5221133408567    
  2.8000000000000       5.0442266817135    
  3.2000000000000       0.0000000000000    
  3.6000000000000       0.0000000000000    
  4.0000000000000       2.5221133408567    
  4.4000000000000       0.0000000000000    
  4.8000000000000       2.5017655365276    
  5.2000000000000       15.067228028346    
  5.6000000000000       15.067228028346    
  6.0000000000000       0.0000000000000    
  6.4000000000000       7.5422894070139    
  6.8000000000000       15.034928159074    
  7.2000000000000       20.011484211173    
  7.6000000000000       7.5411397830762    
  8.0000000000000       15.046193474789    
  8.4000000000000       22.458470259176    
  8.8000000000000       15.040019451955    
  9.2000000000000       22.459314732520    
  9.6000000000000       15.038190694028    
  10.000000000000       4.9640843144635    
  10.400000000000       27.503187881822    
  10.800000000000       27.566714738174    
  11.200000000000       17.491565281287    
  11.600000000000       17.466769421635    
  12.000000000000       5.0289485251498    
  12.400000000000       2.4836752235544    
  12.800000000000       2.4804090909091    
  13.200000000000       17.447820909993    
  13.600000000000       19.983722897491    
  14.000000000000       19.979585559549    
  14.400000000000       17.557863028467    
  14.800000000000       17.624897224141    
  15.200000000000       27.616982095413    
  15.600000000000       32.464657924542    
  16.000000000000       32.480260969512    
  16.400000000000       24.981349617732    
  16.800000000000       25.026291789609    
  17.200000000000       10.010897909359    
  17.600000000000       7.4929376602344    
  18.000000000000       12.525477853644    
  18.400000000000       7.5404882045477    
  18.800000000000       15.105299523530    
  19.200000000000       25.070797875529    
  19.600000000000       2.4708945181034    
  20.000000000000       9.9508191003523    
ZONE T= "Xw:     39.4300      Yw:     34.0100      Rw:    0.100000      Zwbot:     10.5000      Zwtop:     11.1000       Specie:  1 "
 0.40000000000000       12.505543910016    
 0.80000000000000       12.553856626910    
  1.2000000000000       17.469061340442    
  1.6000000000000       17.523707810413    
  2.0000000000000       7.4901020300394    
  2.4000000000000       2.5105023729016    
  2.8000000000000       2.5122363134481    
  3.2000000000000       15.037776955587    
  3.6000000000000       19.958792378234    
  4.0000000000000       37.460868822727    
  4.4000000000000       22.540876983623    
  4.8000000000000       42.388914501135    
  5.2000000000000       32.504122543763    
  5.6000000000000       30.047194912627    
  6.0000000000000       37.758730614102    
  6.4000000000000       40.065553573670    
  6.8000000000000       20.120451960729    
  7.2000000000000       22.549729198356    
  7.6000000000000       30.006923570549    
  8.0000000000000       20.000713667485    
  8.4000000000000       30.012761111699    
  8.8000000000000       14.936001366826    
  9.2000000000000       14.988872022408    
  9.6000000000000       22.433215907273    
  10.000000000000       20.123926000177    