 TITLE="TECPLOT input file: Breakthrough Curves" 
 VARIABLES="Time" "Concentrations" 
ZONE T= "Xw:     39.9300      Yw:     22.4100      Rw:    0.100000      Zwbot:     16.5000      Zwtop:     17.0000       Specie:  1 "
 0.40000000000000       0.0000000000000    
 0.80000000000000       0.0000000000000    
  1.2000000000000       0.0000000000000    
  1.6000000000000       0.0000000000000    
  2.0000000000000       0.0000000000000    
  2.4000000000000       0.0000000000000    
  2.8000000000000       0.0000000000000    
  3.2000000000000       0.0000000000000    
  3.6000000000000       0.0000000000000    
  4.0000000000000       0.0000000000000    
  4.4000000000000       0.0000000000000    
  4.8000000000000       0.0000000000000    
  5.2000000000000       0.0000000000000    
  5.6000000000000       0.0000000000000    
  6.0000000000000       0.0000000000000    
  6.4000000000000       0.0000000000000    
  6.8000000000000       0.0000000000000    
  7.2000000000000       0.0000000000000    
  7.6000000000000       0.0000000000000    
  8.0000000000000       0.0000000000000    
  8.4000000000000       0.0000000000000    
  8.8000000000000       0.0000000000000    
  9.2000000000000       0.0000000000000    
  9.6000000000000       0.0000000000000    
  10.000000000000       0.0000000000000    
  10.400000000000       0.0000000000000    
  10.800000000000       0.0000000000000    
  11.200000000000       0.0000000000000    
  11.600000000000       0.0000000000000    
  12.000000000000       0.0000000000000    
  12.400000000000       4.9553062048208    
  12.800000000000       0.0000000000000    
  13.200000000000       0.0000000000000    
  13.600000000000       0.0000000000000    
  14.000000000000       0.0000000000000    
  14.400000000000       0.0000000000000    
  14.800000000000       4.9553062048208    
  15.200000000000       4.9553062048208    
  15.600000000000       0.0000000000000    
  16.000000000000       2.4776531024104    
  16.400000000000       0.0000000000000    
  16.800000000000       2.4776531024104    
  17.200000000000       0.0000000000000    
  17.600000000000       0.0000000000000    
  18.000000000000       0.0000000000000    
  18.400000000000       0.0000000000000    
  18.800000000000       0.0000000000000    
  19.200000000000       0.0000000000000    
  19.600000000000       0.0000000000000    
  20.000000000000       0.0000000000000    
ZONE T= "Xw:     39.9300      Yw:     22.4100      Rw:    0.100000      Zwbot:     13.5000      Zwtop:     14.0000       Specie:  1 "
 0.40000000000000       0.0000000000000    
 0.80000000000000       0.0000000000000    
  1.2000000000000       0.0000000000000    
  1.6000000000000       0.0000000000000    
  2.0000000000000       0.0000000000000    
  2.4000000000000       0.0000000000000    
  2.8000000000000       0.0000000000000    
  3.2000000000000       0.0000000000000    
  3.6000000000000       0.0000000000000    
  4.0000000000000       0.0000000000000    
  4.4000000000000       0.0000000000000    
  4.8000000000000       0.0000000000000    
  5.2000000000000       0.0000000000000    
  5.6000000000000       0.0000000000000    
  6.0000000000000       0.0000000000000    
  6.4000000000000       0.0000000000000    
  6.8000000000000       0.0000000000000    
  7.2000000000000       0.0000000000000    
  7.6000000000000       0.0000000000000    
  8.0000000000000       0.0000000000000    
  8.4000000000000       0.0000000000000    
  8.8000000000000       0.0000000000000    
  9.2000000000000       0.0000000000000    
  9.6000000000000       0.0000000000000    
  10.000000000000       0.0000000000000    
  10.400000000000       0.0000000000000    
  10.800000000000       0.0000000000000    
  11.200000000000       0.0000000000000    
  11.600000000000       0.0000000000000    
  12.000000000000       7.5544037106783    
  12.400000000000       0.0000000000000    
  12.800000000000       0.0000000000000    
  13.200000000000       0.0000000000000    
  13.600000000000       0.0000000000000    
  14.000000000000       7.4906094125814    
  14.400000000000       5.0043463614314    
  14.800000000000       0.0000000000000    
  15.200000000000       2.4937128161671    
  15.600000000000       2.5058980632242    
  16.000000000000       5.0240326334503    
  16.400000000000       4.9900053831465    
  16.800000000000       2.4841073199222    
  17.200000000000       2.5181345702261    
  17.600000000000       7.5544037106783    
  18.000000000000       10.033165736867    
  18.400000000000       14.956586681131    
  18.800000000000       22.529884288528    
  19.200000000000       0.0000000000000    
  19.600000000000       2.4984482982072    
  20.000000000000       0.0000000000000    
ZONE T= "Xw:     39.9300      Yw:     22.3100      Rw:    0.100000      Zwbot:     10.5000      Zwtop:     11.0000       Specie:  1 "
 0.40000000000000       0.0000000000000    
 0.80000000000000       0.0000000000000    
  1.2000000000000       0.0000000000000    
  1.6000000000000       0.0000000000000    
  2.0000000000000       0.0000000000000    
  2.4000000000000       0.0000000000000    
  2.8000000000000       0.0000000000000    
  3.2000000000000       0.0000000000000    
  3.6000000000000       0.0000000000000    
  4.0000000000000       0.0000000000000    
  4.4000000000000       0.0000000000000    
  4.8000000000000       2.4919518407005    
  5.2000000000000       7.4922498297216    
  5.6000000000000       0.0000000000000    
  6.0000000000000       5.0231359636006    
  6.4000000000000       2.4919518407005    
  6.8000000000000       17.538706330235    
  7.2000000000000       10.008776894601    
  7.6000000000000       24.976478507020    
  8.0000000000000       37.566078222904    
  8.4000000000000       25.001261167668    
  8.8000000000000       27.474602421586    
  9.2000000000000       37.454155849695    
  9.6000000000000       32.506417438103    
  10.000000000000       47.466802970540    
  10.400000000000       47.456464007827    
  10.800000000000       55.004771273417    
  11.200000000000       52.539054722688    
  11.600000000000       27.425063850039    
  12.000000000000       30.052125117114    
  12.400000000000       49.962158139585    
  12.800000000000       24.994536076417    
  13.200000000000       54.926908623298    
  13.600000000000       49.889547109156    
  14.000000000000       27.518201626586    
  14.400000000000       37.479662861933    
  14.800000000000       30.023237596447    
  15.200000000000       17.412354159633    
  15.600000000000       32.525331306901    
  16.000000000000       25.078280887666    
  16.400000000000       27.500820044592    
  16.800000000000       27.457535320975    
  17.200000000000       12.490819427872    
  17.600000000000       5.0174922638703    
  18.000000000000       10.062622415331    
  18.400000000000       4.9947783819447    
  18.800000000000       20.056984067511    
  19.200000000000       12.407127499340    
  19.600000000000       12.490710766311    
  20.000000000000       0.0000000000000    
ZONE T= "Xw:     40.0300      Yw:     22.4100      Rw:    0.100000      Zwbot:     7.60000      Zwtop:     8.10000       Specie:  1 "
 0.40000000000000       0.0000000000000    
 0.80000000000000       0.0000000000000    
  1.2000000000000       0.0000000000000    
  1.6000000000000       0.0000000000000    
  2.0000000000000       0.0000000000000    
  2.4000000000000       0.0000000000000    
  2.8000000000000       0.0000000000000    
  3.2000000000000       0.0000000000000    
  3.6000000000000       0.0000000000000    
  4.0000000000000       0.0000000000000    
  4.4000000000000       0.0000000000000    
  4.8000000000000       0.0000000000000    
  5.2000000000000       0.0000000000000    
  5.6000000000000       12.468414638261    
  6.0000000000000       12.528369193589    
  6.4000000000000       9.9908659275155    
  6.8000000000000       7.4819892249128    
  7.2000000000000       30.005978999481    
  7.6000000000000       7.5047103940448    
  8.0000000000000       19.995021135962    
  8.4000000000000       32.522933233285    
  8.8000000000000       42.520039372408    
  9.2000000000000       59.925428170101    
  9.6000000000000       40.076221010940    
  10.000000000000       47.549932059011    
  10.400000000000       55.016202878624    
  10.800000000000       27.410220169717    
  11.200000000000       42.516508031831    
  11.600000000000       44.979363522510    
  12.000000000000       49.946111114531    
  12.400000000000       52.467352542580    
  12.800000000000       39.901876086062    
  13.200000000000       42.484697292326    
  13.600000000000       47.376963765763    
  14.000000000000       54.868469240915    
  14.400000000000       39.814026303528    
  14.800000000000       49.935066886318    
  15.200000000000       49.938517195113    
  15.600000000000       35.066008556760    
  16.000000000000       30.102995838864    
  16.400000000000       25.103156240028    
  16.800000000000       2.5126702201969    
  17.200000000000       4.9485479791326    
  17.600000000000       4.9869442097632    
  18.000000000000       9.9164955176811    
  18.400000000000       4.9855489012585    
  18.800000000000       10.024925070297    
  19.200000000000       9.9633528368767    
  19.600000000000       0.0000000000000    
  20.000000000000       2.5035799366118    
ZONE T= "Xw:     39.9300      Yw:     22.4100      Rw:    0.100000      Zwbot:     4.50000      Zwtop:     5.00000       Specie:  1 "
 0.40000000000000       0.0000000000000    
 0.80000000000000       0.0000000000000    
  1.2000000000000       0.0000000000000    
  1.6000000000000       0.0000000000000    
  2.0000000000000       0.0000000000000    
  2.4000000000000       0.0000000000000    
  2.8000000000000       0.0000000000000    
  3.2000000000000       0.0000000000000    
  3.6000000000000       0.0000000000000    
  4.0000000000000       2.4834672167025    
  4.4000000000000       0.0000000000000    
  4.8000000000000       2.4834672167025    
  5.2000000000000       12.586022961647    
  5.6000000000000       12.564829061925    
  6.0000000000000       27.511997597844    
  6.4000000000000       25.075414848372    
  6.8000000000000       72.411542392672    
  7.2000000000000       37.508282592102    
  7.6000000000000       45.024922426050    
  8.0000000000000       44.962809499107    
  8.4000000000000       37.451953323934    
  8.8000000000000       44.998688561357    
  9.2000000000000       47.471990344136    
  9.6000000000000       37.578374548067    
  10.000000000000       29.924660960817    
  10.400000000000       39.842383837547    
  10.800000000000       37.361675813537    
  11.200000000000       47.353922967134    
  11.600000000000       35.044351514110    
  12.000000000000       22.527616384387    
  12.400000000000       45.069159499257    
  12.800000000000       29.989719560332    
  13.200000000000       40.031295886762    
  13.600000000000       30.027707361480    
  14.000000000000       34.928372672321    
  14.400000000000       17.433170872899    
  14.800000000000       15.025557547178    
  15.200000000000       20.027632700217    
  15.600000000000       7.5375743996599    
  16.000000000000       9.9849190726643    
  16.400000000000       10.021037848016    
  16.800000000000       5.0039458230985    
  17.200000000000       5.0503514855543    
  17.600000000000       2.5194349391645    
  18.000000000000       10.057394893570    
  18.400000000000       15.080663002935    
  18.800000000000       5.0185321925656    
  19.200000000000       12.559753860009    
  19.600000000000       2.4916189737842    
  20.000000000000       0.0000000000000    
ZONE T= "Xw:     39.8300      Yw:     28.4100      Rw:    0.100000      Zwbot:     16.5000      Zwtop:     17.0000       Specie:  1 "
 0.40000000000000       0.0000000000000    
 0.80000000000000       0.0000000000000    
  1.2000000000000       0.0000000000000    
  1.6000000000000       0.0000000000000    
  2.0000000000000       0.0000000000000    
  2.4000000000000       0.0000000000000    
  2.8000000000000       0.0000000000000    
  3.2000000000000       0.0000000000000    
  3.6000000000000       2.5332578196947    
  4.0000000000000       0.0000000000000    
  4.4000000000000       0.0000000000000    
  4.8000000000000       2.5332578196947    
  5.2000000000000       2.4791747856024    
  5.6000000000000       10.132707354397    
  6.0000000000000       5.0121086809151    
  6.4000000000000       2.4969157362054    
  6.8000000000000       7.5997734590840    
  7.2000000000000       0.0000000000000    
  7.6000000000000       7.5104517603204    
  8.0000000000000       0.0000000000000    
  8.4000000000000       0.0000000000000    
  8.8000000000000       7.5378623613112    
  9.2000000000000       7.5483412698012    
  9.6000000000000       12.648083209731    
  10.000000000000       15.227382082839    
  10.400000000000       32.523197114887    
  10.800000000000       14.948212463856    
  11.200000000000       2.5283186411354    
  11.600000000000       12.542805731829    
  12.000000000000       20.061927463668    
  12.400000000000       14.963184559770    
  12.800000000000       12.481131873695    
  13.200000000000       12.438133301094    
  13.600000000000       9.8969766044498    
  14.000000000000       22.544885915512    
  14.400000000000       27.480864543427    
  14.800000000000       24.916784791953    
  15.200000000000       17.334245798280    
  15.600000000000       19.970958126399    
  16.000000000000       42.369613722033    
  16.400000000000       20.085720707911    
  16.800000000000       34.997595242110    
  17.200000000000       22.264037693944    
  17.600000000000       27.380763367652    
  18.000000000000       27.414772313171    
  18.400000000000       24.832377205554    
  18.800000000000       22.520713486979    
  19.200000000000       25.005315036369    
  19.600000000000       42.372062598547    
  20.000000000000       12.548681007189    
ZONE T= "Xw:     39.9300      Yw:     28.4100      Rw:    0.100000      Zwbot:     13.5000      Zwtop:     14.0000       Specie:  1 "
 0.40000000000000       0.0000000000000    
 0.80000000000000       0.0000000000000    
  1.2000000000000       0.0000000000000    
  1.6000000000000       0.0000000000000    
  2.0000000000000       0.0000000000000    
  2.4000000000000       0.0000000000000    
  2.8000000000000       0.0000000000000    
  3.2000000000000       0.0000000000000    
  3.6000000000000       0.0000000000000    
  4.0000000000000       0.0000000000000    
  4.4000000000000       0.0000000000000    
  4.8000000000000       0.0000000000000    
  5.2000000000000       0.0000000000000    
  5.6000000000000       0.0000000000000    
  6.0000000000000       0.0000000000000    
  6.4000000000000       0.0000000000000    
  6.8000000000000       0.0000000000000    
  7.2000000000000       0.0000000000000    
  7.6000000000000       0.0000000000000    
  8.0000000000000       0.0000000000000    
  8.4000000000000       0.0000000000000    
  8.8000000000000       0.0000000000000    
  9.2000000000000       0.0000000000000    
  9.6000000000000       0.0000000000000    
  10.000000000000       0.0000000000000    
  10.400000000000       0.0000000000000    
  10.800000000000       2.5187062244219    
  11.200000000000       2.5187062244219    
  11.600000000000       0.0000000000000    
  12.000000000000       4.9227122636503    
  12.400000000000       0.0000000000000    
  12.800000000000       2.4613561318252    
  13.200000000000       4.9227122636503    
  13.600000000000       4.9800623562471    
  14.000000000000       0.0000000000000    
  14.400000000000       4.9227122636503    
  14.800000000000       2.4902029128902    
  15.200000000000       2.4902029128902    
  15.600000000000       2.4902029128902    
  16.000000000000       0.0000000000000    
  16.400000000000       0.0000000000000    
  16.800000000000       2.4902029128902    
  17.200000000000       12.559921641404    
  17.600000000000       7.5407418064889    
  18.000000000000       7.5130902230303    
  18.400000000000       17.495985222208    
  18.800000000000       9.9857773581931    
  19.200000000000       17.495507784715    
  19.600000000000       12.527005057367    
  20.000000000000       4.9658702270588    
ZONE T= "Xw:     39.8300      Yw:     28.4100      Rw:    0.100000      Zwbot:     10.6000      Zwtop:     11.2000       Specie:  1 "
 0.40000000000000       0.0000000000000    
 0.80000000000000       0.0000000000000    
  1.2000000000000       0.0000000000000    
  1.6000000000000       2.5078669005796    
  2.0000000000000       5.0157338011591    
  2.4000000000000       7.5083958855818    
  2.8000000000000       17.561751992904    
  3.2000000000000       9.9345375885062    
  3.6000000000000       19.900622363701    
  4.0000000000000       2.4657592093207    
  4.4000000000000       7.5411774981618    
  4.8000000000000       17.483463801884    
  5.2000000000000       12.454573261676    
  5.6000000000000       29.914029575937    
  6.0000000000000       39.696233102389    
  6.4000000000000       62.450572233628    
  6.8000000000000       47.568753265372    
  7.2000000000000       44.928672341405    
  7.6000000000000       27.653838237568    
  8.0000000000000       40.180293743584    
  8.4000000000000       40.092330254228    
  8.8000000000000       12.519741709389    
  9.2000000000000       27.479399691417    
  9.6000000000000       22.514611460943    
  10.000000000000       24.987989448518    
  10.400000000000       44.999803120337    
  10.800000000000       44.879762632859    
  11.200000000000       54.983348080736    
  11.600000000000       52.606414787014    
  12.000000000000       19.936085762050    
  12.400000000000       40.145475829534    
  12.800000000000       24.937103369576    
  13.200000000000       17.520177420024    
  13.600000000000       9.8979048617938    
  14.000000000000       34.753529545646    
  14.400000000000       12.416327910194    
  14.800000000000       24.900451973063    
  15.200000000000       19.985937003469    
  15.600000000000       12.610980580238    
  16.000000000000       12.537812231348    
  16.400000000000       7.5390406057443    
  16.800000000000       5.0180986948825    
  17.200000000000       7.5142867950338    
  17.600000000000       4.9560177372101    
  18.000000000000       4.9997005475552    
  18.400000000000       4.9613003500979    
  18.800000000000       2.4806501750489    
  19.200000000000       5.0197878542126    
  19.600000000000       25.020364529495    
  20.000000000000       4.9764553268640    
ZONE T= "Xw:     39.8300      Yw:     28.4100      Rw:    0.100000      Zwbot:     7.60000      Zwtop:     8.30000       Specie:  1 "
 0.40000000000000       0.0000000000000    
 0.80000000000000       0.0000000000000    
  1.2000000000000       0.0000000000000    
  1.6000000000000       0.0000000000000    
  2.0000000000000       0.0000000000000    
  2.4000000000000       0.0000000000000    
  2.8000000000000       0.0000000000000    
  3.2000000000000       7.5784886604149    
  3.6000000000000       5.0643817429535    
  4.0000000000000       10.020781307742    
  4.4000000000000       5.0061945302634    
  4.8000000000000       7.4919302207486    
  5.2000000000000       19.867405378529    
  5.6000000000000       22.368711572919    
  6.0000000000000       27.470512529531    
  6.4000000000000       24.907646568606    
  6.8000000000000       2.5030972651317    
  7.2000000000000       32.486831298015    
  7.6000000000000       17.505214883691    
  8.0000000000000       40.008612457673    
  8.4000000000000       32.416639422157    
  8.8000000000000       32.512683510335    
  9.2000000000000       30.002749226315    
  9.6000000000000       27.430636527448    
  10.000000000000       34.952369141868    
  10.400000000000       22.515592033737    
  10.800000000000       34.897158622337    
  11.200000000000       47.467195272159    
  11.600000000000       27.347464485251    
  12.000000000000       27.326508433743    
  12.400000000000       54.924494778153    
  12.800000000000       45.135250701173    
  13.200000000000       39.901615476241    
  13.600000000000       40.043705998164    
  14.000000000000       52.384005080941    
  14.400000000000       47.300200112849    
  14.800000000000       29.944996887892    
  15.200000000000       20.001043929393    
  15.600000000000       40.088447487174    
  16.000000000000       27.594011808767    
  16.400000000000       35.116286592007    
  16.800000000000       47.876616662356    
  17.200000000000       30.154144891497    
  17.600000000000       57.704113819937    
  18.000000000000       54.910323678174    
  18.400000000000       47.582143551272    
  18.800000000000       27.467645098877    
  19.200000000000       17.600691308190    
  19.600000000000       27.550814740708    
  20.000000000000       10.057271106795    
ZONE T= "Xw:     39.8300      Yw:     28.5100      Rw:    0.100000      Zwbot:     4.50000      Zwtop:     5.00000       Specie:  1 "
 0.40000000000000       10.133031278779    
 0.80000000000000       5.0030522301166    
  1.2000000000000       7.5113983784372    
  1.6000000000000       9.9861240652551    
  2.0000000000000       17.466897793228    
  2.4000000000000       25.165925072772    
  2.8000000000000       32.449387652237    
  3.2000000000000       30.041070093674    
  3.6000000000000       34.791819544961    
  4.0000000000000       29.850446604647    
  4.4000000000000       59.964018537764    
  4.8000000000000       62.441132279397    
  5.2000000000000       47.684129098022    
  5.6000000000000       47.373335467597    
  6.0000000000000       52.653328647737    
  6.4000000000000       44.984960267732    
  6.8000000000000       47.452240715899    
  7.2000000000000       54.828336205803    
  7.6000000000000       34.844791376786    
  8.0000000000000       44.840797174979    
  8.4000000000000       40.087069274588    
  8.8000000000000       67.050527057157    
  9.2000000000000       74.517159694951    
  9.6000000000000       49.851207034795    
  10.000000000000       22.446170378100    
  10.400000000000       32.643331114952    
  10.800000000000       47.562946097013    
  11.200000000000       22.624878383676    
  11.600000000000       25.038532282128    
  12.000000000000       17.504749392209    
  12.400000000000       14.852976628527    
  12.800000000000       12.397643791228    
  13.200000000000       2.5004399636145    
  13.600000000000       7.4045392134712    
  14.000000000000       7.3736535160367    
  14.400000000000       4.9157690106911    
  14.800000000000       0.0000000000000    
  15.200000000000       2.5230109953583    
  15.600000000000       0.0000000000000    
  16.000000000000       5.0460219907166    
  16.400000000000       0.0000000000000    
  16.800000000000       2.5230109953583    
  17.200000000000       0.0000000000000    
  17.600000000000       0.0000000000000    
  18.000000000000       0.0000000000000    
  18.400000000000       0.0000000000000    
  18.800000000000       0.0000000000000    
  19.200000000000       0.0000000000000    
  19.600000000000       0.0000000000000    
  20.000000000000       0.0000000000000    
ZONE T= "Xw:     39.5300      Yw:     34.0100      Rw:    0.100000      Zwbot:     16.7000      Zwtop:     17.3000       Specie:  1 "
 0.40000000000000       10.102176405152    
 0.80000000000000       2.5255441012880    
  1.2000000000000       0.0000000000000    
  1.6000000000000       0.0000000000000    
  2.0000000000000       7.4278808296691    
  2.4000000000000       15.065318006064    
  2.8000000000000       5.0564338843228    
  3.2000000000000       14.840733895389    
  3.6000000000000       12.537634260857    
  4.0000000000000       10.003841606994    
  4.4000000000000       7.4584763698788    
  4.8000000000000       15.007307738548    
  5.2000000000000       17.445089609965    
  5.6000000000000       9.9659813592530    
  6.0000000000000       29.936026169861    
  6.4000000000000       19.886890111730    
  6.8000000000000       42.550387077776    
  7.2000000000000       34.950570556655    
  7.6000000000000       35.051308453788    
  8.0000000000000       32.591350609298    
  8.4000000000000       30.090535683940    
  8.8000000000000       32.429042460431    
  9.2000000000000       22.330127034953    
  9.6000000000000       39.865473886957    
  10.000000000000       37.366335236532    
  10.400000000000       14.944150230581    
  10.800000000000       20.019978054717    
  11.200000000000       12.461110519541    
  11.600000000000       45.061096087592    
  12.000000000000       7.5230183092755    
  12.400000000000       5.0380560280486    
  12.800000000000       14.912571350398    
  13.200000000000       15.040671027800    
  13.600000000000       22.540896674475    
  14.000000000000       5.0072263487343    
  14.400000000000       20.146688987242    
  14.800000000000       2.5006081742052    
  15.200000000000       15.006250168773    
  15.600000000000       17.490750673220    
  16.000000000000       12.475075587002    
  16.400000000000       15.058672439595    
  16.800000000000       32.708483805550    
  17.200000000000       17.523182489906    
  17.600000000000       9.9848783986367    
  18.000000000000       5.0081548812421    
  18.400000000000       5.0012163484103    
  18.800000000000       5.0417954091185    
  19.200000000000       17.589912532628    
  19.600000000000       17.459700191516    
  20.000000000000       12.537967533568    
ZONE T= "Xw:     39.5300      Yw:     34.1100      Rw:    0.100000      Zwbot:     13.5000      Zwtop:     14.0000       Specie:  1 "
 0.40000000000000       0.0000000000000    
 0.80000000000000       0.0000000000000    
  1.2000000000000       0.0000000000000    
  1.6000000000000       0.0000000000000    
  2.0000000000000       0.0000000000000    
  2.4000000000000       0.0000000000000    
  2.8000000000000       0.0000000000000    
  3.2000000000000       0.0000000000000    
  3.6000000000000       0.0000000000000    
  4.0000000000000       0.0000000000000    
  4.4000000000000       4.9863021955981    
  4.8000000000000       4.9863021955981    
  5.2000000000000       2.4766941221959    
  5.6000000000000       4.9698452199950    
  6.0000000000000       2.4766941221959    
  6.4000000000000       0.0000000000000    
  6.8000000000000       2.4766941221959    
  7.2000000000000       0.0000000000000    
  7.6000000000000       0.0000000000000    
  8.0000000000000       0.0000000000000    
  8.4000000000000       0.0000000000000    
  8.8000000000000       4.9863021955981    
  9.2000000000000       4.9863021955981    
  9.6000000000000       2.5120656132976    
  10.000000000000       7.5100755117829    
  10.400000000000       22.542824096390    
  10.800000000000       17.474318155620    
  11.200000000000       4.9839725330054    
  11.600000000000       2.4859442851878    
  12.000000000000       9.9632144982853    
  12.400000000000       9.9384032229327    
  12.800000000000       12.399877807109    
  13.200000000000       14.935425731052    
  13.600000000000       9.9595392353616    
  14.000000000000       14.947262348714    
  14.400000000000       19.993480417284    
  14.800000000000       12.408218225970    
  15.200000000000       0.0000000000000    
  15.600000000000       9.9083950193244    
  16.000000000000       12.388934544460    
  16.400000000000       2.4902016746966    
  16.800000000000       30.037610288456    
  17.200000000000       19.956732032298    
  17.600000000000       29.858083127438    
  18.000000000000       30.009999415070    
  18.400000000000       30.109085650579    
  18.800000000000       22.517704157317    
  19.200000000000       19.951184063534    
  19.600000000000       25.069936913409    
  20.000000000000       17.474938732818    
ZONE T= "Xw:     39.4300      Yw:     34.0100      Rw:    0.100000      Zwbot:     10.5000      Zwtop:     11.1000       Specie:  1 "
 0.40000000000000       19.925707049381    
 0.80000000000000       22.465516281702    
  1.2000000000000       22.553048603181    
  1.6000000000000       22.500918288769    
  2.0000000000000       30.051987032921    
  2.4000000000000       42.522840690245    
  2.8000000000000       22.467354993535    
  3.2000000000000       29.910996463587    
  3.6000000000000       15.105968904560    
  4.0000000000000       20.062470363976    
  4.4000000000000       27.395292139128    
  4.8000000000000       15.050032410162    
  5.2000000000000       22.594119340752    
  5.6000000000000       27.527108278677    
  6.0000000000000       54.959605702678    
  6.4000000000000       42.618533698196    
  6.8000000000000       65.162753615741    
  7.2000000000000       40.062385027387    
  7.6000000000000       17.488926681777    
  8.0000000000000       25.122775195059    
  8.4000000000000       42.484732951203    
  8.8000000000000       35.091246602982    
  9.2000000000000       52.606198538129    
  9.6000000000000       20.112513344528    
  10.000000000000       35.182922110089    