 TITLE="TECPLOT input file: Breakthrough Curves" 
 VARIABLES="Time" "Concentrations" 
ZONE T= "Xw:     39.9300      Yw:     22.4100      Rw:    0.100000      Zwbot:     16.5000      Zwtop:     17.0000       Specie:  1 "
  0.0000000000000       0.0000000000000    
  0.0000000000000       0.0000000000000    
  0.0000000000000       0.0000000000000    
  0.0000000000000       0.0000000000000    
  0.0000000000000       0.0000000000000    
  0.0000000000000       0.0000000000000    
  0.0000000000000       0.0000000000000    
  0.0000000000000       0.0000000000000    
  0.0000000000000       0.0000000000000    
  0.0000000000000       0.0000000000000    
  0.0000000000000       0.0000000000000    
  0.0000000000000       0.0000000000000    
  0.0000000000000       0.0000000000000    
  0.0000000000000       0.0000000000000    
  0.0000000000000       0.0000000000000    
  0.0000000000000       0.0000000000000    
  0.0000000000000       0.0000000000000    
  0.0000000000000       0.0000000000000    
  0.0000000000000       0.0000000000000    
  0.0000000000000       0.0000000000000    
  0.0000000000000       0.0000000000000    
  0.0000000000000       0.0000000000000    
  0.0000000000000       0.0000000000000    
  0.0000000000000       0.0000000000000    
  0.0000000000000       0.0000000000000    
  0.0000000000000       0.0000000000000    
  0.0000000000000       0.0000000000000    
  0.0000000000000       0.0000000000000    
  0.0000000000000       0.0000000000000    
  0.0000000000000       0.0000000000000    
  0.0000000000000       0.0000000000000    
  0.0000000000000       0.0000000000000    
  0.0000000000000       0.0000000000000    
  0.0000000000000       0.0000000000000    
  0.0000000000000       0.0000000000000    
  0.0000000000000       0.0000000000000    
  0.0000000000000       0.0000000000000    
  0.0000000000000       0.0000000000000    
  0.0000000000000       0.0000000000000    
  0.0000000000000       0.0000000000000    
  0.0000000000000       0.0000000000000    
  0.0000000000000       0.0000000000000    
  0.0000000000000       0.0000000000000    
  0.0000000000000       0.0000000000000    
  0.0000000000000       0.0000000000000    
  0.0000000000000       0.0000000000000    
  0.0000000000000       0.0000000000000    
  0.0000000000000       0.0000000000000    
  0.0000000000000       0.0000000000000    
  0.0000000000000       0.0000000000000    
ZONE T= "Xw:     39.9300      Yw:     22.4100      Rw:    0.100000      Zwbot:     13.5000      Zwtop:     14.0000       Specie:  1 "
 0.40000000000000       0.0000000000000    
 0.80000000000000       0.0000000000000    
  1.2000000000000       0.0000000000000    
  1.6000000000000       0.0000000000000    
  2.0000000000000       0.0000000000000    
  2.4000000000000       0.0000000000000    
  2.8000000000000       0.0000000000000    
  3.2000000000000       0.0000000000000    
  3.6000000000000       0.0000000000000    
  4.0000000000000       0.0000000000000    
  4.4000000000000       0.0000000000000    
  4.8000000000000       0.0000000000000    
  5.2000000000000       0.0000000000000    
  5.6000000000000       0.0000000000000    
  6.0000000000000       0.0000000000000    
  6.4000000000000       0.0000000000000    
  6.8000000000000       0.0000000000000    
  7.2000000000000       0.0000000000000    
  7.6000000000000       0.0000000000000    
  8.0000000000000       0.0000000000000    
  8.4000000000000       0.0000000000000    
  8.8000000000000       0.0000000000000    
  9.2000000000000       0.0000000000000    
  9.6000000000000       2.4894043990548    
  10.000000000000       12.502076159081    
  10.400000000000       2.4894043990548    
  10.800000000000       2.5031679400066    
  11.200000000000       0.0000000000000    
  11.600000000000       2.4894043990548    
  12.000000000000       0.0000000000000    
  12.400000000000       0.0000000000000    
  12.800000000000       0.0000000000000    
  13.200000000000       0.0000000000000    
  13.600000000000       4.9788087981096    
  14.000000000000       7.5085744833981    
  14.400000000000       0.0000000000000    
  14.800000000000       2.4913501110101    
  15.200000000000       12.514600584537    
  15.600000000000       9.9947297609237    
  16.000000000000       9.9890361020333    
  16.400000000000       10.012671760026    
  16.800000000000       0.0000000000000    
  17.200000000000       2.4913501110101    
  17.600000000000       2.5254597453374    
  18.000000000000       12.554958599541    
  18.400000000000       0.0000000000000    
  18.800000000000       12.463387061258    
  19.200000000000       4.9877051878738    
  19.600000000000       19.999203754728    
  20.000000000000       12.475040102206    
ZONE T= "Xw:     39.9300      Yw:     22.3100      Rw:    0.100000      Zwbot:     10.5000      Zwtop:     11.0000       Specie:  1 "
 0.40000000000000       0.0000000000000    
 0.80000000000000       0.0000000000000    
  1.2000000000000       0.0000000000000    
  1.6000000000000       0.0000000000000    
  2.0000000000000       0.0000000000000    
  2.4000000000000       0.0000000000000    
  2.8000000000000       0.0000000000000    
  3.2000000000000       0.0000000000000    
  3.6000000000000       0.0000000000000    
  4.0000000000000       2.4938603203986    
  4.4000000000000       0.0000000000000    
  4.8000000000000       0.0000000000000    
  5.2000000000000       9.9949188047303    
  5.6000000000000       12.476657644392    
  6.0000000000000       17.461806441165    
  6.4000000000000       22.456854240384    
  6.8000000000000       9.9932567043567    
  7.2000000000000       12.443062067891    
  7.6000000000000       29.914007026243    
  8.0000000000000       29.963707444144    
  8.4000000000000       47.564956087788    
  8.8000000000000       15.026678254535    
  9.2000000000000       30.084715273155    
  9.6000000000000       32.548239016832    
  10.000000000000       12.496457650306    
  10.400000000000       22.534511125987    
  10.800000000000       12.545130398198    
  11.200000000000       27.449926172121    
  11.600000000000       24.975659093785    
  12.000000000000       27.445074696874    
  12.400000000000       17.483975633099    
  12.800000000000       24.959059233895    
  13.200000000000       29.983815329565    
  13.600000000000       19.961173486380    
  14.000000000000       24.880076990232    
  14.400000000000       22.468664292119    
  14.800000000000       5.0103499373090    
  15.200000000000       15.001289774714    
  15.600000000000       7.4887613075039    
  16.000000000000       12.438662147579    
  16.400000000000       2.4975532037763    
  16.800000000000       7.4961891035477    
  17.200000000000       2.4811644507563    
  17.600000000000       2.5031823003820    
  18.000000000000       4.9794177015618    
  18.400000000000       2.4987297011826    
  18.800000000000       0.0000000000000    
  19.200000000000       2.4811644507563    
  19.600000000000       0.0000000000000    
  20.000000000000       0.0000000000000    
ZONE T= "Xw:     40.0300      Yw:     22.4100      Rw:    0.100000      Zwbot:     7.60000      Zwtop:     8.10000       Specie:  1 "
 0.40000000000000       0.0000000000000    
 0.80000000000000       0.0000000000000    
  1.2000000000000       0.0000000000000    
  1.6000000000000       0.0000000000000    
  2.0000000000000       0.0000000000000    
  2.4000000000000       0.0000000000000    
  2.8000000000000       0.0000000000000    
  3.2000000000000       0.0000000000000    
  3.6000000000000       0.0000000000000    
  4.0000000000000       0.0000000000000    
  4.4000000000000       2.5130733731004    
  4.8000000000000       0.0000000000000    
  5.2000000000000       0.0000000000000    
  5.6000000000000       4.9952327405206    
  6.0000000000000       17.550356239527    
  6.4000000000000       10.049714026654    
  6.8000000000000       22.538347600525    
  7.2000000000000       15.092770097252    
  7.6000000000000       27.519542273354    
  8.0000000000000       17.538807439726    
  8.4000000000000       37.558826114333    
  8.8000000000000       10.029664596894    
  9.2000000000000       17.483959938212    
  9.6000000000000       27.571380767971    
  10.000000000000       44.995668218077    
  10.400000000000       62.528720901655    
  10.800000000000       34.991053131526    
  11.200000000000       27.493273682608    
  11.600000000000       44.843353257649    
  12.000000000000       12.460329403641    
  12.400000000000       17.475719211977    
  12.800000000000       32.506210856074    
  13.200000000000       37.537795355482    
  13.600000000000       32.333208403704    
  14.000000000000       24.979960562349    
  14.400000000000       24.989737792851    
  14.800000000000       34.999542594669    
  15.200000000000       22.427437954971    
  15.600000000000       17.470822235997    
  16.000000000000       14.983070851532    
  16.400000000000       22.528162899056    
  16.800000000000       24.981152617822    
  17.200000000000       24.980650408271    
  17.600000000000       29.869554758845    
  18.000000000000       35.058391292021    
  18.400000000000       14.995948476544    
  18.800000000000       4.9812209019029    
  19.200000000000       2.4897088507809    
  19.600000000000       9.9874157280179    
  20.000000000000       0.0000000000000    
ZONE T= "Xw:     39.9300      Yw:     22.4100      Rw:    0.100000      Zwbot:     4.50000      Zwtop:     5.00000       Specie:  1 "
 0.40000000000000       0.0000000000000    
 0.80000000000000       0.0000000000000    
  1.2000000000000       0.0000000000000    
  1.6000000000000       0.0000000000000    
  2.0000000000000       0.0000000000000    
  2.4000000000000       0.0000000000000    
  2.8000000000000       0.0000000000000    
  3.2000000000000       2.4922549371185    
  3.6000000000000       0.0000000000000    
  4.0000000000000       0.0000000000000    
  4.4000000000000       7.4826695600902    
  4.8000000000000       7.4740819914169    
  5.2000000000000       7.4768500648657    
  5.6000000000000       14.988301931524    
  6.0000000000000       14.945052394940    
  6.4000000000000       12.528138758158    
  6.8000000000000       29.976320876987    
  7.2000000000000       24.956549105822    
  7.6000000000000       19.971852359518    
  8.0000000000000       29.867497038916    
  8.4000000000000       47.510346204970    
  8.8000000000000       45.045522840070    
  9.2000000000000       15.049716961298    
  9.6000000000000       20.028758852414    
  10.000000000000       19.949903494465    
  10.400000000000       37.433231965586    
  10.800000000000       17.490604738383    
  11.200000000000       32.502755652112    
  11.600000000000       45.045192394615    
  12.000000000000       44.953740112560    
  12.400000000000       37.499345426786    
  12.800000000000       32.552572679041    
  13.200000000000       22.549366513249    
  13.600000000000       24.928766089551    
  14.000000000000       9.9450624559988    
  14.400000000000       0.0000000000000    
  14.800000000000       9.9849579711032    
  15.200000000000       15.050832093728    
  15.600000000000       12.451506685342    
  16.000000000000       4.9919786512523    
  16.400000000000       0.0000000000000    
  16.800000000000       2.5041094822060    
  17.200000000000       9.9843255471412    
  17.600000000000       9.9777111999866    
  18.000000000000       12.506392911551    
  18.400000000000       10.036546839514    
  18.800000000000       4.9614099546490    
  19.200000000000       2.4807049773245    
  19.600000000000       0.0000000000000    
  20.000000000000       0.0000000000000    
ZONE T= "Xw:     39.8300      Yw:     28.4100      Rw:    0.100000      Zwbot:     16.5000      Zwtop:     17.0000       Specie:  1 "
 0.40000000000000       0.0000000000000    
 0.80000000000000       0.0000000000000    
  1.2000000000000       0.0000000000000    
  1.6000000000000       0.0000000000000    
  2.0000000000000       0.0000000000000    
  2.4000000000000       0.0000000000000    
  2.8000000000000       2.4941337739705    
  3.2000000000000       0.0000000000000    
  3.6000000000000       0.0000000000000    
  4.0000000000000       4.9844176501796    
  4.4000000000000       0.0000000000000    
  4.8000000000000       0.0000000000000    
  5.2000000000000       4.9702109194072    
  5.6000000000000       10.072220390348    
  6.0000000000000       2.5180550975871    
  6.4000000000000       12.460274118635    
  6.8000000000000       12.468630338833    
  7.2000000000000       20.018568003498    
  7.6000000000000       12.458587086896    
  8.0000000000000       0.0000000000000    
  8.4000000000000       14.998813120659    
  8.8000000000000       14.990354662084    
  9.2000000000000       9.9475369338636    
  9.6000000000000       9.9194583764860    
  10.000000000000       9.9740167649372    
  10.400000000000       15.008939687918    
  10.800000000000       7.5311075242447    
  11.200000000000       19.944869554974    
  11.600000000000       25.039818763072    
  12.000000000000       27.581330176699    
  12.400000000000       12.471883776123    
  12.800000000000       12.569464499703    
  13.200000000000       9.9972341097229    
  13.600000000000       29.807540061264    
  14.000000000000       7.5638314582608    
  14.400000000000       0.0000000000000    
  14.800000000000       0.0000000000000    
  15.200000000000       5.0435571955193    
  15.600000000000       0.0000000000000    
  16.000000000000       22.396312629787    
  16.400000000000       7.5037877811209    
  16.800000000000       14.936718786243    
  17.200000000000       2.4770102970210    
  17.600000000000       2.4934746196868    
  18.000000000000       0.0000000000000    
  18.400000000000       4.9838302742481    
  18.800000000000       9.8871780327059    
  19.200000000000       5.0011322894640    
  19.600000000000       9.9944728603418    
  20.000000000000       7.5189481633552    
ZONE T= "Xw:     39.9300      Yw:     28.4100      Rw:    0.100000      Zwbot:     13.5000      Zwtop:     14.0000       Specie:  1 "
 0.40000000000000       0.0000000000000    
 0.80000000000000       0.0000000000000    
  1.2000000000000       0.0000000000000    
  1.6000000000000       0.0000000000000    
  2.0000000000000       0.0000000000000    
  2.4000000000000       0.0000000000000    
  2.8000000000000       0.0000000000000    
  3.2000000000000       0.0000000000000    
  3.6000000000000       0.0000000000000    
  4.0000000000000       0.0000000000000    
  4.4000000000000       0.0000000000000    
  4.8000000000000       0.0000000000000    
  5.2000000000000       0.0000000000000    
  5.6000000000000       0.0000000000000    
  6.0000000000000       0.0000000000000    
  6.4000000000000       0.0000000000000    
  6.8000000000000       0.0000000000000    
  7.2000000000000       0.0000000000000    
  7.6000000000000       0.0000000000000    
  8.0000000000000       0.0000000000000    
  8.4000000000000       0.0000000000000    
  8.8000000000000       0.0000000000000    
  9.2000000000000       0.0000000000000    
  9.6000000000000       0.0000000000000    
  10.000000000000       0.0000000000000    
  10.400000000000       0.0000000000000    
  10.800000000000       0.0000000000000    
  11.200000000000       0.0000000000000    
  11.600000000000       0.0000000000000    
  12.000000000000       0.0000000000000    
  12.400000000000       0.0000000000000    
  12.800000000000       2.5036693912940    
  13.200000000000       0.0000000000000    
  13.600000000000       2.5036693912940    
  14.000000000000       0.0000000000000    
  14.400000000000       0.0000000000000    
  14.800000000000       0.0000000000000    
  15.200000000000       7.5058463330472    
  15.600000000000       2.5349807734534    
  16.000000000000       7.5093723905007    
  16.400000000000       0.0000000000000    
  16.800000000000       0.0000000000000    
  17.200000000000       7.5608106582296    
  17.600000000000       15.014718348457    
  18.000000000000       15.028066105186    
  18.400000000000       7.4539076902275    
  18.800000000000       4.9660842612675    
  19.200000000000       2.4830421306338    
  19.600000000000       4.9660842612675    
  20.000000000000       4.9660842612675    
ZONE T= "Xw:     39.8300      Yw:     28.4100      Rw:    0.100000      Zwbot:     10.6000      Zwtop:     11.2000       Specie:  1 "
 0.40000000000000       0.0000000000000    
 0.80000000000000       0.0000000000000    
  1.2000000000000       0.0000000000000    
  1.6000000000000       2.5246546254635    
  2.0000000000000       5.0493092509270    
  2.4000000000000       0.0000000000000    
  2.8000000000000       0.0000000000000    
  3.2000000000000       0.0000000000000    
  3.6000000000000       4.9739734187642    
  4.0000000000000       5.0196258265299    
  4.4000000000000       12.450283821021    
  4.8000000000000       9.9048495711707    
  5.2000000000000       25.087605773571    
  5.6000000000000       22.557149568127    
  6.0000000000000       37.415990852619    
  6.4000000000000       44.837857010447    
  6.8000000000000       59.799127503505    
  7.2000000000000       67.442257569261    
  7.6000000000000       39.901784773855    
  8.0000000000000       47.493524780249    
  8.4000000000000       42.553093131085    
  8.8000000000000       25.055668806186    
  9.2000000000000       30.104689383605    
  9.6000000000000       45.256530250356    
  10.000000000000       40.110688482530    
  10.400000000000       20.105156710969    
  10.800000000000       37.495500416681    
  11.200000000000       14.989316645547    
  11.600000000000       34.974633050336    
  12.000000000000       22.506565774965    
  12.400000000000       24.988130958938    
  12.800000000000       37.534250507642    
  13.200000000000       22.467266431729    
  13.600000000000       37.584950855764    
  14.000000000000       29.958015767581    
  14.400000000000       19.966596824055    
  14.800000000000       34.825946585591    
  15.200000000000       29.889205881460    
  15.600000000000       24.941884682649    
  16.000000000000       4.9885987118737    
  16.400000000000       25.035842954110    
  16.800000000000       7.4947890627953    
  17.200000000000       4.9779918506849    
  17.600000000000       2.4803114525658    
  18.000000000000       7.4560731941470    
  18.400000000000       4.9953607962380    
  18.800000000000       9.9651477207840    
  19.200000000000       5.0084117422788    
  19.600000000000       0.0000000000000    
  20.000000000000       0.0000000000000    
ZONE T= "Xw:     39.8300      Yw:     28.4100      Rw:    0.100000      Zwbot:     7.60000      Zwtop:     8.30000       Specie:  1 "
 0.40000000000000       0.0000000000000    
 0.80000000000000       0.0000000000000    
  1.2000000000000       0.0000000000000    
  1.6000000000000       2.5147204663677    
  2.0000000000000       10.051510549394    
  2.4000000000000       10.014022822638    
  2.8000000000000       7.4824013219114    
  3.2000000000000       4.9698260695745    
  3.6000000000000       0.0000000000000    
  4.0000000000000       2.4941337739705    
  4.4000000000000       5.0351422318124    
  4.8000000000000       14.940156824105    
  5.2000000000000       12.627548017148    
  5.6000000000000       25.076477536669    
  6.0000000000000       40.200615092371    
  6.4000000000000       12.447611206307    
  6.8000000000000       14.903679677988    
  7.2000000000000       24.941553272256    
  7.6000000000000       50.091063583612    
  8.0000000000000       29.950945911506    
  8.4000000000000       52.435263658092    
  8.8000000000000       44.843744240338    
  9.2000000000000       25.006870346281    
  9.6000000000000       17.568994171871    
  10.000000000000       32.690753587223    
  10.400000000000       22.599865005669    
  10.800000000000       45.223843736476    
  11.200000000000       54.874799298766    
  11.600000000000       44.868660790821    
  12.000000000000       42.557661735748    
  12.400000000000       20.138603973973    
  12.800000000000       29.977705521412    
  13.200000000000       24.996636034874    
  13.600000000000       34.974580253521    
  14.000000000000       57.509467647307    
  14.400000000000       32.533697429291    
  14.800000000000       17.516187365872    
  15.200000000000       0.0000000000000    
  15.600000000000       17.414689692045    
  16.000000000000       44.918512167809    
  16.400000000000       20.055316084638    
  16.800000000000       14.971716977850    
  17.200000000000       24.903993284862    
  17.600000000000       35.112689178769    
  18.000000000000       22.553648300952    
  18.400000000000       17.598625176756    
  18.800000000000       40.004941757286    
  19.200000000000       27.517581275800    
  19.600000000000       37.381678182250    
  20.000000000000       17.407826918017    
ZONE T= "Xw:     39.8300      Yw:     28.5100      Rw:    0.100000      Zwbot:     4.50000      Zwtop:     5.00000       Specie:  1 "
 0.40000000000000       4.9769594300639    
 0.80000000000000       7.4636491885338    
  1.2000000000000       9.9321730514714    
  1.6000000000000       22.341300697224    
  2.0000000000000       30.086657128005    
  2.4000000000000       40.143369219354    
  2.8000000000000       12.539102432616    
  3.2000000000000       17.519757818639    
  3.6000000000000       25.072150456986    
  4.0000000000000       37.394076855480    
  4.4000000000000       34.907352982356    
  4.8000000000000       27.517483255400    
  5.2000000000000       10.015526078861    
  5.6000000000000       59.830652013783    
  6.0000000000000       54.902096676760    
  6.4000000000000       64.928070082630    
  6.8000000000000       34.991123003661    
  7.2000000000000       32.424853891313    
  7.6000000000000       32.532291183557    
  8.0000000000000       55.922061260013    
  8.4000000000000       65.958508884741    
  8.8000000000000       27.308376978784    
  9.2000000000000       29.850609016329    
  9.6000000000000       44.970694703204    
  10.000000000000       20.040901199073    
  10.400000000000       12.663705004956    
  10.800000000000       32.822815908570    
  11.200000000000       30.136132169090    
  11.600000000000       20.022270759837    
  12.000000000000       7.4791435233567    
  12.400000000000       24.869657042430    
  12.800000000000       9.9335072417020    
  13.200000000000       7.4939382881232    
  13.600000000000       5.0152403352963    
  14.000000000000       2.4679632893784    
  14.400000000000       10.061063384921    
  14.800000000000       12.439032099948    
  15.200000000000       17.431899149327    
  15.600000000000       2.4679632893784    
  16.000000000000       4.9408150081531    
  16.400000000000       0.0000000000000    
  16.800000000000       2.5201048122340    
  17.200000000000       10.018347001652    
  17.600000000000       5.0113012951610    
  18.000000000000       2.5090501729082    
  18.400000000000       0.0000000000000    
  18.800000000000       5.0024145736807    
  19.200000000000       0.0000000000000    
  19.600000000000       0.0000000000000    
  20.000000000000       0.0000000000000    
ZONE T= "Xw:     39.5300      Yw:     34.0100      Rw:    0.100000      Zwbot:     16.7000      Zwtop:     17.3000       Specie:  1 "
 0.40000000000000       0.0000000000000    
 0.80000000000000       0.0000000000000    
  1.2000000000000       0.0000000000000    
  1.6000000000000       0.0000000000000    
  2.0000000000000       0.0000000000000    
  2.4000000000000       0.0000000000000    
  2.8000000000000       7.5168734462924    
  3.2000000000000       12.516014859993    
  3.6000000000000       2.5192826304792    
  4.0000000000000       4.9657887509433    
  4.4000000000000       12.472959202960    
  4.8000000000000       17.393211508965    
  5.2000000000000       27.492319007100    
  5.6000000000000       15.038139455233    
  6.0000000000000       7.4517437506193    
  6.4000000000000       17.478081671654    
  6.8000000000000       22.606508691781    
  7.2000000000000       20.040973249647    
  7.6000000000000       27.500390049562    
  8.0000000000000       10.053694811742    
  8.4000000000000       7.5188623640513    
  8.8000000000000       30.007332123329    
  9.2000000000000       37.384558169336    
  9.6000000000000       37.367289870687    
  10.000000000000       9.9613975412665    
  10.400000000000       44.911684857875    
  10.800000000000       15.017292785926    
  11.200000000000       25.068212534383    
  11.600000000000       22.433107271582    
  12.000000000000       12.557180760153    
  12.400000000000       9.9872529671008    
  12.800000000000       7.4617630190537    
  13.200000000000       7.5000316787522    
  13.600000000000       12.478049730156    
  14.000000000000       22.514935010880    
  14.400000000000       17.537676040703    
  14.800000000000       2.4935176456575    
  15.200000000000       5.0108203840024    
  15.600000000000       9.9898765586885    
  16.000000000000       17.451032941171    
  16.400000000000       14.892448958112    
  16.800000000000       2.4988996879817    
  17.200000000000       9.8934852272007    
  17.600000000000       2.5079544960271    
  18.000000000000       0.0000000000000    
  18.400000000000       9.9549101306693    
  18.800000000000       17.438464017726    
  19.200000000000       4.9591263340364    
  19.600000000000       9.9111974968391    
  20.000000000000       4.9555987484195    
ZONE T= "Xw:     39.5300      Yw:     34.1100      Rw:    0.100000      Zwbot:     13.5000      Zwtop:     14.0000       Specie:  1 "
 0.40000000000000       0.0000000000000    
 0.80000000000000       0.0000000000000    
  1.2000000000000       0.0000000000000    
  1.6000000000000       0.0000000000000    
  2.0000000000000       0.0000000000000    
  2.4000000000000       0.0000000000000    
  2.8000000000000       0.0000000000000    
  3.2000000000000       0.0000000000000    
  3.6000000000000       0.0000000000000    
  4.0000000000000       0.0000000000000    
  4.4000000000000       0.0000000000000    
  4.8000000000000       2.4859038311782    
  5.2000000000000       0.0000000000000    
  5.6000000000000       2.4792466741798    
  6.0000000000000       0.0000000000000    
  6.4000000000000       12.440634130680    
  6.8000000000000       4.9796715074651    
  7.2000000000000       7.5350469725038    
  7.6000000000000       25.092106176319    
  8.0000000000000       19.998781840862    
  8.4000000000000       9.9876850563978    
  8.8000000000000       17.600730776584    
  9.2000000000000       22.619720106413    
  9.6000000000000       45.094707309441    
  10.000000000000       35.121382028212    
  10.400000000000       27.537798032381    
  10.800000000000       30.026920690252    
  11.200000000000       22.531311835592    
  11.600000000000       40.085325191338    
  12.000000000000       22.570503494519    
  12.400000000000       17.626534713610    
  12.800000000000       27.554209721213    
  13.200000000000       29.859330879334    
  13.600000000000       12.502787637920    
  14.000000000000       27.475648677837    
  14.400000000000       22.382571915861    
  14.800000000000       2.4920655098850    
  15.200000000000       10.057552561504    
  15.600000000000       12.487517336547    
  16.000000000000       20.102187464100    
  16.400000000000       2.4739871296312    
  16.800000000000       2.4813075809041    
  17.200000000000       2.5273456799562    
  17.600000000000       4.9558796458901    
  18.000000000000       9.9300856240994    
  18.400000000000       4.9686562415716    
  18.800000000000       4.9601520373332    
  19.200000000000       7.5069570610623    
  19.600000000000       14.861147713486    
  20.000000000000       2.4720307260337    
ZONE T= "Xw:     39.4300      Yw:     34.0100      Rw:    0.100000      Zwbot:     10.5000      Zwtop:     11.1000       Specie:  1 "
 0.40000000000000       9.9383999170243    
 0.80000000000000       12.453557712687    
  1.2000000000000       7.4632613211101    
  1.6000000000000       0.0000000000000    
  2.0000000000000       2.5056188511675    
  2.4000000000000       0.0000000000000    
  2.8000000000000       17.385195098048    
  3.2000000000000       12.462081349448    
  3.6000000000000       12.414383941314    
  4.0000000000000       40.044138053323    
  4.4000000000000       37.637850032017    
  4.8000000000000       22.477376380928    
  5.2000000000000       29.897991692416    
  5.6000000000000       25.026578425360    
  6.0000000000000       27.572214547613    
  6.4000000000000       30.086151614091    
  6.8000000000000       37.621490589136    
  7.2000000000000       17.546609764513    
  7.6000000000000       12.497983433044    
  8.0000000000000       17.467529112242    
  8.4000000000000       32.566627404217    
  8.8000000000000       27.407767104256    
  9.2000000000000       17.357762843250    
  9.6000000000000       17.376176714965    
  10.000000000000       15.030488448032    