 TITLE="TECPLOT input file: Breakthrough Curves" 
 VARIABLES="Time" "Concentrations" 
ZONE T= "Xw:     39.9300      Yw:     22.4100      Rw:    0.100000      Zwbot:     16.5000      Zwtop:     17.0000       Specie:  1 "
 0.40000000000000       0.0000000000000    
 0.80000000000000       0.0000000000000    
  1.2000000000000       0.0000000000000    
  1.6000000000000       0.0000000000000    
  2.0000000000000       0.0000000000000    
  2.4000000000000       0.0000000000000    
  2.8000000000000       0.0000000000000    
  3.2000000000000       0.0000000000000    
  3.6000000000000       0.0000000000000    
  4.0000000000000       0.0000000000000    
  4.4000000000000       0.0000000000000    
  4.8000000000000       0.0000000000000    
  5.2000000000000       0.0000000000000    
  5.6000000000000       0.0000000000000    
  6.0000000000000       0.0000000000000    
  6.4000000000000       0.0000000000000    
  6.8000000000000       0.0000000000000    
  7.2000000000000       0.0000000000000    
  7.6000000000000       0.0000000000000    
  8.0000000000000       0.0000000000000    
  8.4000000000000       0.0000000000000    
  8.8000000000000       0.0000000000000    
  9.2000000000000       0.0000000000000    
  9.6000000000000       0.0000000000000    
  10.000000000000       0.0000000000000    
  10.400000000000       0.0000000000000    
  10.800000000000       0.0000000000000    
  11.200000000000       0.0000000000000    
  11.600000000000       0.0000000000000    
  12.000000000000       0.0000000000000    
  12.400000000000       0.0000000000000    
  12.800000000000       0.0000000000000    
  13.200000000000       0.0000000000000    
  13.600000000000       0.0000000000000    
  14.000000000000       0.0000000000000    
  14.400000000000       0.0000000000000    
  14.800000000000       0.0000000000000    
  15.200000000000       0.0000000000000    
  15.600000000000       0.0000000000000    
  16.000000000000       0.0000000000000    
  16.400000000000       0.0000000000000    
  16.800000000000       0.0000000000000    
  17.200000000000       0.0000000000000    
  17.600000000000       0.0000000000000    
  18.000000000000       0.0000000000000    
  18.400000000000       0.0000000000000    
  18.800000000000       0.0000000000000    
  19.200000000000       7.4799264818474    
  19.600000000000       5.0229264215287    
  20.000000000000       2.5114632107643    
ZONE T= "Xw:     39.9300      Yw:     22.4100      Rw:    0.100000      Zwbot:     13.5000      Zwtop:     14.0000       Specie:  1 "
 0.40000000000000       0.0000000000000    
 0.80000000000000       0.0000000000000    
  1.2000000000000       0.0000000000000    
  1.6000000000000       0.0000000000000    
  2.0000000000000       0.0000000000000    
  2.4000000000000       0.0000000000000    
  2.8000000000000       0.0000000000000    
  3.2000000000000       0.0000000000000    
  3.6000000000000       0.0000000000000    
  4.0000000000000       0.0000000000000    
  4.4000000000000       0.0000000000000    
  4.8000000000000       0.0000000000000    
  5.2000000000000       0.0000000000000    
  5.6000000000000       0.0000000000000    
  6.0000000000000       0.0000000000000    
  6.4000000000000       0.0000000000000    
  6.8000000000000       0.0000000000000    
  7.2000000000000       0.0000000000000    
  7.6000000000000       0.0000000000000    
  8.0000000000000       0.0000000000000    
  8.4000000000000       0.0000000000000    
  8.8000000000000       0.0000000000000    
  9.2000000000000       0.0000000000000    
  9.6000000000000       0.0000000000000    
  10.000000000000       0.0000000000000    
  10.400000000000       0.0000000000000    
  10.800000000000       0.0000000000000    
  11.200000000000       0.0000000000000    
  11.600000000000       0.0000000000000    
  12.000000000000       0.0000000000000    
  12.400000000000       0.0000000000000    
  12.800000000000       0.0000000000000    
  13.200000000000       0.0000000000000    
  13.600000000000       0.0000000000000    
  14.000000000000       0.0000000000000    
  14.400000000000       0.0000000000000    
  14.800000000000       2.4942394067506    
  15.200000000000       0.0000000000000    
  15.600000000000       0.0000000000000    
  16.000000000000       0.0000000000000    
  16.400000000000       4.9617367130157    
  16.800000000000       0.0000000000000    
  17.200000000000       0.0000000000000    
  17.600000000000       2.4812893897604    
  18.000000000000       4.9617367130157    
  18.400000000000       4.9992427799817    
  18.800000000000       12.439060389907    
  19.200000000000       19.990869583752    
  19.600000000000       7.4767958597258    
  20.000000000000       2.4799392033084    
ZONE T= "Xw:     39.9300      Yw:     22.3100      Rw:    0.100000      Zwbot:     10.5000      Zwtop:     11.0000       Specie:  1 "
 0.40000000000000       0.0000000000000    
 0.80000000000000       0.0000000000000    
  1.2000000000000       0.0000000000000    
  1.6000000000000       0.0000000000000    
  2.0000000000000       0.0000000000000    
  2.4000000000000       0.0000000000000    
  2.8000000000000       0.0000000000000    
  3.2000000000000       0.0000000000000    
  3.6000000000000       0.0000000000000    
  4.0000000000000       0.0000000000000    
  4.4000000000000       0.0000000000000    
  4.8000000000000       0.0000000000000    
  5.2000000000000       4.9878267395555    
  5.6000000000000       2.4936768213967    
  6.0000000000000       0.0000000000000    
  6.4000000000000       27.401240228854    
  6.8000000000000       30.030922451302    
  7.2000000000000       30.010851615781    
  7.6000000000000       14.995632360318    
  8.0000000000000       19.926705914625    
  8.4000000000000       44.979934197015    
  8.8000000000000       17.573849101384    
  9.2000000000000       27.528473903992    
  9.6000000000000       30.170117312426    
  10.000000000000       35.173583543265    
  10.400000000000       50.113453035470    
  10.800000000000       37.594135507120    
  11.200000000000       17.530102881010    
  11.600000000000       45.113863483556    
  12.000000000000       47.498402181993    
  12.400000000000       32.497468330691    
  12.800000000000       22.569174260506    
  13.200000000000       34.872017024749    
  13.600000000000       37.526026683851    
  14.000000000000       17.489620480666    
  14.400000000000       34.986151226160    
  14.800000000000       25.035322254371    
  15.200000000000       15.025124937106    
  15.600000000000       12.580479443450    
  16.000000000000       15.061551438453    
  16.400000000000       15.049187860982    
  16.800000000000       10.008172829427    
  17.200000000000       4.9870885660157    
  17.600000000000       7.5022716021668    
  18.000000000000       20.017933600542    
  18.400000000000       20.047913078863    
  18.800000000000       7.5041153056334    
  19.200000000000       12.528501173356    
  19.600000000000       17.522717730241    
  20.000000000000       0.0000000000000    
ZONE T= "Xw:     40.0300      Yw:     22.4100      Rw:    0.100000      Zwbot:     7.60000      Zwtop:     8.10000       Specie:  1 "
 0.40000000000000       0.0000000000000    
 0.80000000000000       0.0000000000000    
  1.2000000000000       0.0000000000000    
  1.6000000000000       0.0000000000000    
  2.0000000000000       0.0000000000000    
  2.4000000000000       0.0000000000000    
  2.8000000000000       0.0000000000000    
  3.2000000000000       0.0000000000000    
  3.6000000000000       2.4842570724208    
  4.0000000000000       0.0000000000000    
  4.4000000000000       0.0000000000000    
  4.8000000000000       4.9685141448417    
  5.2000000000000       5.0003939271034    
  5.6000000000000       5.0322737093651    
  6.0000000000000       17.545908828881    
  6.4000000000000       24.985705009951    
  6.8000000000000       24.949028406952    
  7.2000000000000       32.467832979937    
  7.6000000000000       32.518542645329    
  8.0000000000000       62.513701116896    
  8.4000000000000       19.891378258113    
  8.8000000000000       37.445992403773    
  9.2000000000000       27.507674742475    
  9.6000000000000       27.564629696433    
  10.000000000000       32.479907062731    
  10.400000000000       20.006777448494    
  10.800000000000       27.569588511151    
  11.200000000000       22.481091804773    
  11.600000000000       44.948109162381    
  12.000000000000       44.952532662751    
  12.400000000000       49.938634567365    
  12.800000000000       52.377923389250    
  13.200000000000       45.093613153651    
  13.600000000000       32.572199894985    
  14.000000000000       34.971972311799    
  14.400000000000       35.030267964823    
  14.800000000000       22.578639582987    
  15.200000000000       24.905919600821    
  15.600000000000       12.484372669123    
  16.000000000000       14.899817484358    
  16.400000000000       5.0491555874035    
  16.800000000000       0.0000000000000    
  17.200000000000       7.5339234679415    
  17.600000000000       14.955336515017    
  18.000000000000       12.376971251896    
  18.400000000000       7.4311935201793    
  18.800000000000       7.4860243669864    
  19.200000000000       9.9675827858293    
  19.600000000000       12.455730948094    
  20.000000000000       10.040708158400    
ZONE T= "Xw:     39.9300      Yw:     22.4100      Rw:    0.100000      Zwbot:     4.50000      Zwtop:     5.00000       Specie:  1 "
 0.40000000000000       0.0000000000000    
 0.80000000000000       0.0000000000000    
  1.2000000000000       0.0000000000000    
  1.6000000000000       0.0000000000000    
  2.0000000000000       0.0000000000000    
  2.4000000000000       0.0000000000000    
  2.8000000000000       0.0000000000000    
  3.2000000000000       0.0000000000000    
  3.6000000000000       4.9888850379417    
  4.0000000000000       7.5025685766292    
  4.4000000000000       7.5520513117409    
  4.8000000000000       20.076034694427    
  5.2000000000000       12.563352195372    
  5.6000000000000       20.012659524498    
  6.0000000000000       29.890202798764    
  6.4000000000000       17.462396540487    
  6.8000000000000       20.043270265579    
  7.2000000000000       42.525170037178    
  7.6000000000000       35.077902530250    
  8.0000000000000       20.034285374467    
  8.4000000000000       22.505845231624    
  8.8000000000000       29.949189059632    
  9.2000000000000       40.052408489189    
  9.6000000000000       39.994421976681    
  10.000000000000       30.058931858847    
  10.400000000000       30.004931797339    
  10.800000000000       17.567696621643    
  11.200000000000       19.889314298431    
  11.600000000000       32.476132985521    
  12.000000000000       37.464298983168    
  12.400000000000       40.004783291456    
  12.800000000000       47.344047797025    
  13.200000000000       37.439505436157    
  13.600000000000       22.383864253964    
  14.000000000000       9.9851834847105    
  14.400000000000       2.5187449768263    
  14.800000000000       9.9935038054009    
  15.200000000000       0.0000000000000    
  15.600000000000       12.479895262031    
  16.000000000000       12.525668669166    
  16.400000000000       14.946019852392    
  16.800000000000       7.4764886959639    
  17.200000000000       10.004752368280    
  17.600000000000       4.9860927412536    
  18.000000000000       12.495839058387    
  18.400000000000       4.9869455247089    
  18.800000000000       4.9869455247089    
  19.200000000000       0.0000000000000    
  19.600000000000       2.4934727623544    
  20.000000000000       2.4967938596037    
ZONE T= "Xw:     39.8300      Yw:     28.4100      Rw:    0.100000      Zwbot:     16.5000      Zwtop:     17.0000       Specie:  1 "
 0.40000000000000       0.0000000000000    
 0.80000000000000       0.0000000000000    
  1.2000000000000       0.0000000000000    
  1.6000000000000       0.0000000000000    
  2.0000000000000       0.0000000000000    
  2.4000000000000       0.0000000000000    
  2.8000000000000       0.0000000000000    
  3.2000000000000       0.0000000000000    
  3.6000000000000       0.0000000000000    
  4.0000000000000       0.0000000000000    
  4.4000000000000       0.0000000000000    
  4.8000000000000       0.0000000000000    
  5.2000000000000       0.0000000000000    
  5.6000000000000       0.0000000000000    
  6.0000000000000       0.0000000000000    
  6.4000000000000       0.0000000000000    
  6.8000000000000       0.0000000000000    
  7.2000000000000       2.5268116271813    
  7.6000000000000       7.5532487229508    
  8.0000000000000       15.098229742047    
  8.4000000000000       5.0536232543626    
  8.8000000000000       0.0000000000000    
  9.2000000000000       12.540196335052    
  9.6000000000000       5.0123457174649    
  10.000000000000       12.511308405815    
  10.400000000000       7.4951594815662    
  10.800000000000       20.132154086031    
  11.200000000000       15.148437282140    
  11.600000000000       14.982617759863    
  12.000000000000       7.5184767613548    
  12.400000000000       7.5316221733712    
  12.800000000000       9.9970439044976    
  13.200000000000       7.4807811400445    
  13.600000000000       7.4638002098382    
  14.000000000000       10.029330388479    
  14.400000000000       7.5787860347880    
  14.800000000000       10.017243544455    
  15.200000000000       5.0332887201372    
  15.600000000000       2.4809778173477    
  16.000000000000       7.5507951481690    
  16.400000000000       4.9834279343801    
  16.800000000000       20.098581342437    
  17.200000000000       14.990429616283    
  17.600000000000       25.124832608252    
  18.000000000000       7.5609370728077    
  18.400000000000       19.964701431455    
  18.800000000000       24.720821231876    
  19.200000000000       34.863405725505    
  19.600000000000       14.989863271738    
  20.000000000000       7.4204464368420    
ZONE T= "Xw:     39.9300      Yw:     28.4100      Rw:    0.100000      Zwbot:     13.5000      Zwtop:     14.0000       Specie:  1 "
 0.40000000000000       0.0000000000000    
 0.80000000000000       0.0000000000000    
  1.2000000000000       0.0000000000000    
  1.6000000000000       0.0000000000000    
  2.0000000000000       0.0000000000000    
  2.4000000000000       0.0000000000000    
  2.8000000000000       0.0000000000000    
  3.2000000000000       0.0000000000000    
  3.6000000000000       0.0000000000000    
  4.0000000000000       0.0000000000000    
  4.4000000000000       0.0000000000000    
  4.8000000000000       0.0000000000000    
  5.2000000000000       0.0000000000000    
  5.6000000000000       0.0000000000000    
  6.0000000000000       0.0000000000000    
  6.4000000000000       0.0000000000000    
  6.8000000000000       0.0000000000000    
  7.2000000000000       0.0000000000000    
  7.6000000000000       0.0000000000000    
  8.0000000000000       0.0000000000000    
  8.4000000000000       0.0000000000000    
  8.8000000000000       0.0000000000000    
  9.2000000000000       0.0000000000000    
  9.6000000000000       0.0000000000000    
  10.000000000000       0.0000000000000    
  10.400000000000       0.0000000000000    
  10.800000000000       0.0000000000000    
  11.200000000000       0.0000000000000    
  11.600000000000       0.0000000000000    
  12.000000000000       0.0000000000000    
  12.400000000000       0.0000000000000    
  12.800000000000       0.0000000000000    
  13.200000000000       0.0000000000000    
  13.600000000000       2.4605094552403    
  14.000000000000       2.5114838558694    
  14.400000000000       0.0000000000000    
  14.800000000000       0.0000000000000    
  15.200000000000       2.4605094552403    
  15.600000000000       7.4325027663501    
  16.000000000000       4.9210189104807    
  16.400000000000       0.0000000000000    
  16.800000000000       2.4992357455942    
  17.200000000000       0.0000000000000    
  17.600000000000       0.0000000000000    
  18.000000000000       0.0000000000000    
  18.400000000000       0.0000000000000    
  18.800000000000       0.0000000000000    
  19.200000000000       4.9425050355768    
  19.600000000000       2.4886085846615    
  20.000000000000       2.5049035357033    
ZONE T= "Xw:     39.8300      Yw:     28.4100      Rw:    0.100000      Zwbot:     10.6000      Zwtop:     11.2000       Specie:  1 "
 0.40000000000000       0.0000000000000    
 0.80000000000000       0.0000000000000    
  1.2000000000000       2.5152702282543    
  1.6000000000000       2.4696348981626    
  2.0000000000000       7.5632461367001    
  2.4000000000000       7.5812801471086    
  2.8000000000000       20.182748201452    
  3.2000000000000       12.385008010552    
  3.6000000000000       17.368568380258    
  4.0000000000000       9.9370360314202    
  4.4000000000000       7.5324774485153    
  4.8000000000000       4.9746230045782    
  5.2000000000000       17.448391651911    
  5.6000000000000       0.0000000000000    
  6.0000000000000       19.879547436176    
  6.4000000000000       17.479552656181    
  6.8000000000000       35.060547047959    
  7.2000000000000       39.813715338082    
  7.6000000000000       22.335259729832    
  8.0000000000000       22.413402042269    
  8.4000000000000       29.752470018345    
  8.8000000000000       34.638898335770    
  9.2000000000000       27.448578387264    
  9.6000000000000       22.379655166510    
  10.000000000000       15.015221438361    
  10.400000000000       24.979650543887    
  10.800000000000       24.962806370597    
  11.200000000000       22.622061449312    
  11.600000000000       19.983019835467    
  12.000000000000       14.971745040685    
  12.400000000000       22.487930771231    
  12.800000000000       17.591032030750    
  13.200000000000       17.407477509269    
  13.600000000000       9.9083667220995    
  14.000000000000       10.022595566236    
  14.400000000000       17.534393940726    
  14.800000000000       22.530334603305    
  15.200000000000       7.4809966330796    
  15.600000000000       24.997045111863    
  16.000000000000       17.446434472781    
  16.400000000000       10.024577010975    
  16.800000000000       5.0080493592317    
  17.200000000000       7.5760779723275    
  17.600000000000       5.0162912909342    
  18.000000000000       5.0030439215065    
  18.400000000000       2.5081456454671    
  18.800000000000       5.0234684197182    
  19.200000000000       2.5262328721268    
  19.600000000000       2.5262328721268    
  20.000000000000       0.0000000000000    
ZONE T= "Xw:     39.8300      Yw:     28.4100      Rw:    0.100000      Zwbot:     7.60000      Zwtop:     8.30000       Specie:  1 "
 0.40000000000000       0.0000000000000    
 0.80000000000000       0.0000000000000    
  1.2000000000000       0.0000000000000    
  1.6000000000000       0.0000000000000    
  2.0000000000000       0.0000000000000    
  2.4000000000000       0.0000000000000    
  2.8000000000000       0.0000000000000    
  3.2000000000000       0.0000000000000    
  3.6000000000000       2.5061415818914    
  4.0000000000000       7.4165427601028    
  4.4000000000000       2.4835653598277    
  4.8000000000000       7.5461053291971    
  5.2000000000000       25.131318428312    
  5.6000000000000       30.070122262246    
  6.0000000000000       17.492381984662    
  6.4000000000000       17.586075096619    
  6.8000000000000       15.059293158855    
  7.2000000000000       15.023796007865    
  7.6000000000000       35.027620262931    
  8.0000000000000       34.845622659351    
  8.4000000000000       34.960111395726    
  8.8000000000000       24.870076605447    
  9.2000000000000       9.9915790643068    
  9.6000000000000       24.856891932729    
  10.000000000000       34.856779459463    
  10.400000000000       24.936788609934    
  10.800000000000       42.333811265011    
  11.200000000000       32.347032609349    
  11.600000000000       25.058866238916    
  12.000000000000       32.489674834819    
  12.400000000000       27.411051327606    
  12.800000000000       67.088035458172    
  13.200000000000       54.944602440060    
  13.600000000000       52.463728191954    
  14.000000000000       17.583843292581    
  14.400000000000       24.918029891802    
  14.800000000000       52.377523276832    
  15.200000000000       20.078152794401    
  15.600000000000       17.632388258192    
  16.000000000000       25.076350873565    
  16.400000000000       17.521186509323    
  16.800000000000       25.035821170735    
  17.200000000000       40.157636063078    
  17.600000000000       32.551390409036    
  18.000000000000       32.404304840196    
  18.400000000000       12.374859866818    
  18.800000000000       34.974631044878    
  19.200000000000       37.498505669236    
  19.600000000000       15.049294016945    
  20.000000000000       9.9100429226274    
ZONE T= "Xw:     39.8300      Yw:     28.5100      Rw:    0.100000      Zwbot:     4.50000      Zwtop:     5.00000       Specie:  1 "
 0.40000000000000       7.4921078831494    
 0.80000000000000       4.9947385887663    
  1.2000000000000       15.047596676404    
  1.6000000000000       12.588494275483    
  2.0000000000000       2.4968601978609    
  2.4000000000000       29.991341277923    
  2.8000000000000       34.839329010577    
  3.2000000000000       32.433876903586    
  3.6000000000000       50.057693238259    
  4.0000000000000       39.844940701138    
  4.4000000000000       50.203578422785    
  4.8000000000000       52.659783019358    
  5.2000000000000       39.992081032125    
  5.6000000000000       50.005112403660    
  6.0000000000000       37.422911727322    
  6.4000000000000       20.005517091117    
  6.8000000000000       52.541157611041    
  7.2000000000000       27.605252714523    
  7.6000000000000       22.497318153897    
  8.0000000000000       49.740877635129    
  8.4000000000000       37.273934642850    
  8.8000000000000       37.503000168235    
  9.2000000000000       35.199007598511    
  9.6000000000000       22.430673916675    
  10.000000000000       32.407781043160    
  10.400000000000       20.071473004862    
  10.800000000000       27.475774853625    
  11.200000000000       37.417970735572    
  11.600000000000       14.995103465818    
  12.000000000000       24.848740663398    
  12.400000000000       14.915190444592    
  12.800000000000       4.9847402982348    
  13.200000000000       2.4768273638475    
  13.600000000000       0.0000000000000    
  14.000000000000       4.9847402982348    
  14.400000000000       12.531486333998    
  14.800000000000       2.4793880669538    
  15.200000000000       12.430412590178    
  15.600000000000       7.3906554016417    
  16.000000000000       4.9772171693230    
  16.400000000000       0.0000000000000    
  16.800000000000       2.4635518005472    
  17.200000000000       0.0000000000000    
  17.600000000000       0.0000000000000    
  18.000000000000       0.0000000000000    
  18.400000000000       0.0000000000000    
  18.800000000000       0.0000000000000    
  19.200000000000       0.0000000000000    
  19.600000000000       0.0000000000000    
  20.000000000000       0.0000000000000    
ZONE T= "Xw:     39.5300      Yw:     34.0100      Rw:    0.100000      Zwbot:     16.7000      Zwtop:     17.3000       Specie:  1 "
 0.40000000000000       42.200843082534    
 0.80000000000000       0.0000000000000    
  1.2000000000000       0.0000000000000    
  1.6000000000000       7.4507097844898    
  2.0000000000000       10.005692270367    
  2.4000000000000       12.485988106585    
  2.8000000000000       12.443690872155    
  3.2000000000000       4.9677615207345    
  3.6000000000000       7.4655379920905    
  4.0000000000000       20.076125249375    
  4.4000000000000       4.9973055613779    
  4.8000000000000       14.868033998717    
  5.2000000000000       22.417855484707    
  5.6000000000000       10.098194182336    
  6.0000000000000       20.116724833240    
  6.4000000000000       12.533306899505    
  6.8000000000000       30.061433020642    
  7.2000000000000       17.424513689078    
  7.6000000000000       7.4437144931182    
  8.0000000000000       19.989224793877    
  8.4000000000000       12.589796090065    
  8.8000000000000       14.958222476422    
  9.2000000000000       7.5319402226948    
  9.6000000000000       30.002097908411    
  10.000000000000       37.421898690594    
  10.400000000000       27.434680240332    
  10.800000000000       15.054493873928    
  11.200000000000       15.091095706945    
  11.600000000000       17.615064255314    
  12.000000000000       12.542351317672    
  12.400000000000       7.5239850766007    
  12.800000000000       10.033257322832    
  13.200000000000       7.5461387966890    
  13.600000000000       12.563512886895    
  14.000000000000       7.5175425318199    
  14.400000000000       17.479258562336    
  14.800000000000       10.024096270002    
  15.200000000000       14.928082939435    
  15.600000000000       2.5009415148024    
  16.000000000000       5.0048185318296    
  16.400000000000       12.560268343928    
  16.800000000000       17.484089542489    
  17.200000000000       22.440924844286    
  17.600000000000       25.002956677056    
  18.000000000000       0.0000000000000    
  18.400000000000       2.4917414171631    
  18.800000000000       7.4659931392656    
  19.200000000000       4.9520818779772    
  19.600000000000       19.978499360596    
  20.000000000000       9.9957645421892    
ZONE T= "Xw:     39.5300      Yw:     34.1100      Rw:    0.100000      Zwbot:     13.5000      Zwtop:     14.0000       Specie:  1 "
 0.40000000000000       0.0000000000000    
 0.80000000000000       0.0000000000000    
  1.2000000000000       0.0000000000000    
  1.6000000000000       0.0000000000000    
  2.0000000000000       0.0000000000000    
  2.4000000000000       0.0000000000000    
  2.8000000000000       0.0000000000000    
  3.2000000000000       0.0000000000000    
  3.6000000000000       0.0000000000000    
  4.0000000000000       0.0000000000000    
  4.4000000000000       4.9850729127571    
  4.8000000000000       4.9850729127571    
  5.2000000000000       2.4802610302490    
  5.6000000000000       2.4802610302490    
  6.0000000000000       5.0048185318296    
  6.4000000000000       4.9847560857418    
  6.8000000000000       2.4823095636560    
  7.2000000000000       2.5044950554928    
  7.6000000000000       7.4892511412346    
  8.0000000000000       10.005843475719    
  8.4000000000000       0.0000000000000    
  8.8000000000000       2.4823095636560    
  9.2000000000000       17.469550134878    
  9.6000000000000       17.537610736863    
  10.000000000000       0.0000000000000    
  10.400000000000       24.913303173677    
  10.800000000000       7.4791360138478    
  11.200000000000       27.524871832586    
  11.600000000000       10.043100875114    
  12.000000000000       22.493956248807    
  12.400000000000       17.559567401852    
  12.800000000000       42.383404882701    
  13.200000000000       35.048155273201    
  13.600000000000       7.4640713297178    
  14.000000000000       24.941946947811    
  14.400000000000       34.993486639806    
  14.800000000000       42.514434909875    
  15.200000000000       12.507329489529    
  15.600000000000       30.060768787582    
  16.000000000000       34.893599522803    
  16.400000000000       32.342831354289    
  16.800000000000       32.449767383380    
  17.200000000000       22.272026321737    
  17.600000000000       24.982149274167    
  18.000000000000       12.525636889630    
  18.400000000000       19.926238863451    
  18.800000000000       32.431216642021    
  19.200000000000       14.976857600931    
  19.600000000000       17.498106602513    
  20.000000000000       20.003065588958    
ZONE T= "Xw:     39.4300      Yw:     34.0100      Rw:    0.100000      Zwbot:     10.5000      Zwtop:     11.1000       Specie:  1 "
 0.40000000000000       20.127650717570    
 0.80000000000000       2.4828570171034    
  1.2000000000000       2.4874226968843    
  1.6000000000000       22.426877137146    
  2.0000000000000       9.9730994019299    
  2.4000000000000       22.558258109291    
  2.8000000000000       57.573582301447    
  3.2000000000000       29.922845721486    
  3.6000000000000       57.561403007944    
  4.0000000000000       65.048745620549    
  4.4000000000000       29.979888462879    
  4.8000000000000       35.046625435761    
  5.2000000000000       42.500948846649    
  5.6000000000000       54.890528711242    
  6.0000000000000       47.482763910582    
  6.4000000000000       22.447259032608    
  6.8000000000000       34.948727358782    
  7.2000000000000       29.966351174027    
  7.6000000000000       20.019547652444    
  8.0000000000000       39.912965964236    
  8.4000000000000       25.012310125297    
  8.8000000000000       40.178275561329    
  9.2000000000000       27.544407985113    
  9.6000000000000       45.190884816729    
  10.000000000000       22.486995268657    