 TITLE="TECPLOT input file: Breakthrough Curves" 
 VARIABLES="Time" "Concentrations" 
ZONE T= "Xw:     39.9300      Yw:     22.4100      Rw:    0.100000      Zwbot:     16.5000      Zwtop:     17.0000       Specie:  1 "
  0.0000000000000       0.0000000000000    
  0.0000000000000       0.0000000000000    
  0.0000000000000       0.0000000000000    
  0.0000000000000       0.0000000000000    
  0.0000000000000       0.0000000000000    
  0.0000000000000       0.0000000000000    
  0.0000000000000       0.0000000000000    
  0.0000000000000       0.0000000000000    
  0.0000000000000       0.0000000000000    
  0.0000000000000       0.0000000000000    
  0.0000000000000       0.0000000000000    
  0.0000000000000       0.0000000000000    
  0.0000000000000       0.0000000000000    
  0.0000000000000       0.0000000000000    
  0.0000000000000       0.0000000000000    
  0.0000000000000       0.0000000000000    
  0.0000000000000       0.0000000000000    
  0.0000000000000       0.0000000000000    
  0.0000000000000       0.0000000000000    
  0.0000000000000       0.0000000000000    
  0.0000000000000       0.0000000000000    
  0.0000000000000       0.0000000000000    
  0.0000000000000       0.0000000000000    
  0.0000000000000       0.0000000000000    
  0.0000000000000       0.0000000000000    
  0.0000000000000       0.0000000000000    
  0.0000000000000       0.0000000000000    
  0.0000000000000       0.0000000000000    
  0.0000000000000       0.0000000000000    
  0.0000000000000       0.0000000000000    
  0.0000000000000       0.0000000000000    
  0.0000000000000       0.0000000000000    
  0.0000000000000       0.0000000000000    
  0.0000000000000       0.0000000000000    
  0.0000000000000       0.0000000000000    
  0.0000000000000       0.0000000000000    
  0.0000000000000       0.0000000000000    
  0.0000000000000       0.0000000000000    
  0.0000000000000       0.0000000000000    
  0.0000000000000       0.0000000000000    
  0.0000000000000       0.0000000000000    
  0.0000000000000       0.0000000000000    
  0.0000000000000       0.0000000000000    
  0.0000000000000       0.0000000000000    
  0.0000000000000       0.0000000000000    
  0.0000000000000       0.0000000000000    
  0.0000000000000       0.0000000000000    
  0.0000000000000       0.0000000000000    
  0.0000000000000       0.0000000000000    
  0.0000000000000       0.0000000000000    
ZONE T= "Xw:     39.9300      Yw:     22.4100      Rw:    0.100000      Zwbot:     13.5000      Zwtop:     14.0000       Specie:  1 "
 0.40000000000000       0.0000000000000    
 0.80000000000000       0.0000000000000    
  1.2000000000000       0.0000000000000    
  1.6000000000000       0.0000000000000    
  2.0000000000000       0.0000000000000    
  2.4000000000000       0.0000000000000    
  2.8000000000000       0.0000000000000    
  3.2000000000000       0.0000000000000    
  3.6000000000000       0.0000000000000    
  4.0000000000000       0.0000000000000    
  4.4000000000000       0.0000000000000    
  4.8000000000000       0.0000000000000    
  5.2000000000000       0.0000000000000    
  5.6000000000000       0.0000000000000    
  6.0000000000000       0.0000000000000    
  6.4000000000000       0.0000000000000    
  6.8000000000000       0.0000000000000    
  7.2000000000000       0.0000000000000    
  7.6000000000000       2.4970774066210    
  8.0000000000000       7.4912322198630    
  8.4000000000000       0.0000000000000    
  8.8000000000000       7.4912322198630    
  9.2000000000000       2.4970774066210    
  9.6000000000000       0.0000000000000    
  10.000000000000       0.0000000000000    
  10.400000000000       0.0000000000000    
  10.800000000000       4.9941548132420    
  11.200000000000       0.0000000000000    
  11.600000000000       0.0000000000000    
  12.000000000000       0.0000000000000    
  12.400000000000       0.0000000000000    
  12.800000000000       2.4974683317188    
  13.200000000000       7.4924049951563    
  13.600000000000       0.0000000000000    
  14.000000000000       0.0000000000000    
  14.400000000000       7.5241755447783    
  14.800000000000       15.019511939136    
  15.200000000000       7.4664972439371    
  15.600000000000       2.4888324146457    
  16.000000000000       9.8994339499283    
  16.400000000000       4.9497169749641    
  16.800000000000       4.9699673959524    
  17.200000000000       0.0000000000000    
  17.600000000000       0.0000000000000    
  18.000000000000       0.0000000000000    
  18.400000000000       12.505326209969    
  18.800000000000       12.517282750850    
  19.200000000000       14.879700279682    
  19.600000000000       7.5099977675932    
  20.000000000000       14.981139447913    
ZONE T= "Xw:     39.9300      Yw:     22.3100      Rw:    0.100000      Zwbot:     10.5000      Zwtop:     11.0000       Specie:  1 "
 0.40000000000000       0.0000000000000    
 0.80000000000000       0.0000000000000    
  1.2000000000000       0.0000000000000    
  1.6000000000000       0.0000000000000    
  2.0000000000000       0.0000000000000    
  2.4000000000000       0.0000000000000    
  2.8000000000000       0.0000000000000    
  3.2000000000000       0.0000000000000    
  3.6000000000000       0.0000000000000    
  4.0000000000000       2.4974683317188    
  4.4000000000000       0.0000000000000    
  4.8000000000000       7.4706264555864    
  5.2000000000000       7.4609673806045    
  5.6000000000000       17.543369404351    
  6.0000000000000       12.554166206628    
  6.4000000000000       9.9649854443942    
  6.8000000000000       22.427048354534    
  7.2000000000000       4.9813267489739    
  7.6000000000000       7.5103130504438    
  8.0000000000000       7.5407545158969    
  8.4000000000000       5.0456997643990    
  8.8000000000000       22.603220709187    
  9.2000000000000       20.104724903247    
  9.6000000000000       35.083325718349    
  10.000000000000       25.025157027056    
  10.400000000000       30.112356918140    
  10.800000000000       20.000553183119    
  11.200000000000       27.494098733791    
  11.600000000000       40.048823366973    
  12.000000000000       10.038213482799    
  12.400000000000       9.9883054442481    
  12.800000000000       29.887960630947    
  13.200000000000       29.892714778446    
  13.600000000000       25.093316490297    
  14.000000000000       32.507883764532    
  14.400000000000       12.548088970811    
  14.800000000000       4.9730067158669    
  15.200000000000       9.9465870864532    
  15.600000000000       9.9597681794710    
  16.000000000000       15.009399959329    
  16.400000000000       4.9567055579014    
  16.800000000000       12.371280324568    
  17.200000000000       4.9491578601654    
  17.600000000000       12.497772696621    
  18.000000000000       2.4745789300827    
  18.400000000000       0.0000000000000    
  18.800000000000       10.029180015571    
  19.200000000000       2.5065432633981    
  19.600000000000       5.0160934887748    
  20.000000000000       2.5095502253767    
ZONE T= "Xw:     40.0300      Yw:     22.4100      Rw:    0.100000      Zwbot:     7.60000      Zwtop:     8.10000       Specie:  1 "
 0.40000000000000       0.0000000000000    
 0.80000000000000       0.0000000000000    
  1.2000000000000       0.0000000000000    
  1.6000000000000       0.0000000000000    
  2.0000000000000       0.0000000000000    
  2.4000000000000       0.0000000000000    
  2.8000000000000       0.0000000000000    
  3.2000000000000       0.0000000000000    
  3.6000000000000       0.0000000000000    
  4.0000000000000       0.0000000000000    
  4.4000000000000       0.0000000000000    
  4.8000000000000       0.0000000000000    
  5.2000000000000       0.0000000000000    
  5.6000000000000       10.104624980398    
  6.0000000000000       12.422970354112    
  6.4000000000000       17.493657637608    
  6.8000000000000       17.481958943942    
  7.2000000000000       37.352354731601    
  7.6000000000000       37.408141358884    
  8.0000000000000       22.510892000566    
  8.4000000000000       42.477007526455    
  8.8000000000000       27.387833090559    
  9.2000000000000       32.320915466323    
  9.6000000000000       14.908446031286    
  10.000000000000       24.873122101143    
  10.400000000000       34.953989870206    
  10.800000000000       55.002473834349    
  11.200000000000       62.437399497678    
  11.600000000000       42.619287083017    
  12.000000000000       64.957919536485    
  12.400000000000       22.435109457165    
  12.800000000000       22.495505325697    
  13.200000000000       42.465493264640    
  13.600000000000       35.068280623787    
  14.000000000000       24.983998374330    
  14.400000000000       35.098833214093    
  14.800000000000       32.583411718127    
  15.200000000000       12.494077780617    
  15.600000000000       9.9672270033810    
  16.000000000000       15.008626181207    
  16.400000000000       19.953807754661    
  16.800000000000       22.426637847565    
  17.200000000000       12.430413149934    
  17.600000000000       9.9669566198020    
  18.000000000000       15.052733776374    
  18.400000000000       2.4946092527425    
  18.800000000000       10.003790398114    
  19.200000000000       7.5091811453713    
  19.600000000000       2.4803231549225    
  20.000000000000       0.0000000000000    
ZONE T= "Xw:     39.9300      Yw:     22.4100      Rw:    0.100000      Zwbot:     4.50000      Zwtop:     5.00000       Specie:  1 "
 0.40000000000000       0.0000000000000    
 0.80000000000000       0.0000000000000    
  1.2000000000000       0.0000000000000    
  1.6000000000000       0.0000000000000    
  2.0000000000000       0.0000000000000    
  2.4000000000000       0.0000000000000    
  2.8000000000000       0.0000000000000    
  3.2000000000000       0.0000000000000    
  3.6000000000000       4.9735878207705    
  4.0000000000000       7.4962062416155    
  4.4000000000000       17.445342645795    
  4.8000000000000       0.0000000000000    
  5.2000000000000       9.9692594069313    
  5.6000000000000       9.9986564804419    
  6.0000000000000       4.9634885260695    
  6.4000000000000       24.986448508340    
  6.8000000000000       30.010199833071    
  7.2000000000000       30.062746941069    
  7.6000000000000       35.045375797798    
  8.0000000000000       67.628581852616    
  8.4000000000000       45.075740277761    
  8.8000000000000       42.500564763262    
  9.2000000000000       44.944893414946    
  9.6000000000000       42.488456670528    
  10.000000000000       42.451962474411    
  10.400000000000       37.392532410998    
  10.800000000000       24.993937226481    
  11.200000000000       34.916157980270    
  11.600000000000       32.568307176135    
  12.000000000000       27.491687977065    
  12.400000000000       17.552687742549    
  12.800000000000       32.646006574468    
  13.200000000000       12.496493243916    
  13.600000000000       20.127783149869    
  14.000000000000       27.492117866668    
  14.400000000000       14.923467860307    
  14.800000000000       12.426374649108    
  15.200000000000       22.383889002562    
  15.600000000000       12.463671157416    
  16.000000000000       7.4641816221743    
  16.400000000000       17.433999568030    
  16.800000000000       7.4415306231760    
  17.200000000000       7.4642594594683    
  17.600000000000       19.944568458550    
  18.000000000000       7.4893690368223    
  18.400000000000       15.050443550842    
  18.800000000000       5.0231831663411    
  19.200000000000       0.0000000000000    
  19.600000000000       0.0000000000000    
  20.000000000000       0.0000000000000    
ZONE T= "Xw:     39.8300      Yw:     28.4100      Rw:    0.100000      Zwbot:     16.5000      Zwtop:     17.0000       Specie:  1 "
 0.40000000000000       0.0000000000000    
 0.80000000000000       0.0000000000000    
  1.2000000000000       0.0000000000000    
  1.6000000000000       0.0000000000000    
  2.0000000000000       0.0000000000000    
  2.4000000000000       0.0000000000000    
  2.8000000000000       0.0000000000000    
  3.2000000000000       0.0000000000000    
  3.6000000000000       0.0000000000000    
  4.0000000000000       0.0000000000000    
  4.4000000000000       0.0000000000000    
  4.8000000000000       0.0000000000000    
  5.2000000000000       0.0000000000000    
  5.6000000000000       0.0000000000000    
  6.0000000000000       0.0000000000000    
  6.4000000000000       0.0000000000000    
  6.8000000000000       7.5559037462648    
  7.2000000000000       7.5460769429167    
  7.6000000000000       12.475565359432    
  8.0000000000000       15.003769858399    
  8.4000000000000       7.5043809728339    
  8.8000000000000       12.505009813904    
  9.2000000000000       7.5012794126447    
  9.6000000000000       2.4816738128048    
  10.000000000000       9.9888166412172    
  10.400000000000       15.020598924867    
  10.800000000000       9.9783963021982    
  11.200000000000       4.9943222797495    
  11.600000000000       7.4630719300743    
  12.000000000000       9.9551698001708    
  12.400000000000       10.087013493659    
  12.800000000000       22.533042417022    
  13.200000000000       15.029253832048    
  13.600000000000       12.570842614647    
  14.000000000000       12.476904915781    
  14.400000000000       17.551876265303    
  14.800000000000       20.117333109116    
  15.200000000000       7.5313804634689    
  15.600000000000       12.556360988385    
  16.000000000000       2.5133076310310    
  16.400000000000       5.0704347194986    
  16.800000000000       10.048980158272    
  17.200000000000       7.5467459696334    
  17.600000000000       15.060360287353    
  18.000000000000       10.035365590562    
  18.400000000000       12.496765113006    
  18.800000000000       0.0000000000000    
  19.200000000000       5.0735619461833    
  19.600000000000       0.0000000000000    
  20.000000000000       0.0000000000000    
ZONE T= "Xw:     39.9300      Yw:     28.4100      Rw:    0.100000      Zwbot:     13.5000      Zwtop:     14.0000       Specie:  1 "
 0.40000000000000       0.0000000000000    
 0.80000000000000       0.0000000000000    
  1.2000000000000       0.0000000000000    
  1.6000000000000       0.0000000000000    
  2.0000000000000       0.0000000000000    
  2.4000000000000       0.0000000000000    
  2.8000000000000       0.0000000000000    
  3.2000000000000       0.0000000000000    
  3.6000000000000       0.0000000000000    
  4.0000000000000       0.0000000000000    
  4.4000000000000       0.0000000000000    
  4.8000000000000       0.0000000000000    
  5.2000000000000       0.0000000000000    
  5.6000000000000       0.0000000000000    
  6.0000000000000       0.0000000000000    
  6.4000000000000       0.0000000000000    
  6.8000000000000       0.0000000000000    
  7.2000000000000       0.0000000000000    
  7.6000000000000       0.0000000000000    
  8.0000000000000       0.0000000000000    
  8.4000000000000       0.0000000000000    
  8.8000000000000       0.0000000000000    
  9.2000000000000       4.9998154938884    
  9.6000000000000       4.9998154938884    
  10.000000000000       0.0000000000000    
  10.400000000000       0.0000000000000    
  10.800000000000       0.0000000000000    
  11.200000000000       0.0000000000000    
  11.600000000000       2.4999077469442    
  12.000000000000       10.004295797153    
  12.400000000000       7.5043880502091    
  12.800000000000       0.0000000000000    
  13.200000000000       0.0000000000000    
  13.600000000000       0.0000000000000    
  14.000000000000       0.0000000000000    
  14.400000000000       0.0000000000000    
  14.800000000000       0.0000000000000    
  15.200000000000       2.4999077469442    
  15.600000000000       7.4785534281281    
  16.000000000000       4.9395919078084    
  16.400000000000       2.4697959539042    
  16.800000000000       0.0000000000000    
  17.200000000000       0.0000000000000    
  17.600000000000       5.0262059617809    
  18.000000000000       9.8845776743800    
  18.400000000000       7.4645727475995    
  18.800000000000       4.9633476256096    
  19.200000000000       4.9633476256096    
  19.600000000000       4.9633476256096    
  20.000000000000       0.0000000000000    
ZONE T= "Xw:     39.8300      Yw:     28.4100      Rw:    0.100000      Zwbot:     10.6000      Zwtop:     11.2000       Specie:  1 "
 0.40000000000000       0.0000000000000    
 0.80000000000000       0.0000000000000    
  1.2000000000000       0.0000000000000    
  1.6000000000000       2.5043933032886    
  2.0000000000000       7.5188667446835    
  2.4000000000000       2.5220480046553    
  2.8000000000000       17.606730018299    
  3.2000000000000       0.0000000000000    
  3.6000000000000       9.9957745962982    
  4.0000000000000       20.157733214542    
  4.4000000000000       10.080508303627    
  4.8000000000000       12.561414202846    
  5.2000000000000       34.965829427033    
  5.6000000000000       30.045255990762    
  6.0000000000000       12.525797482451    
  6.4000000000000       29.973562065939    
  6.8000000000000       14.868047115451    
  7.2000000000000       44.947194442125    
  7.6000000000000       25.047028765736    
  8.0000000000000       32.394761461527    
  8.4000000000000       32.521508289081    
  8.8000000000000       30.028993882008    
  9.2000000000000       29.972616639218    
  9.6000000000000       27.533467087506    
  10.000000000000       35.165478511927    
  10.400000000000       27.521184752770    
  10.800000000000       39.916700042520    
  11.200000000000       32.493742256567    
  11.600000000000       45.028339369868    
  12.000000000000       59.869177630961    
  12.400000000000       25.097777799964    
  12.800000000000       22.474675682473    
  13.200000000000       22.548826892109    
  13.600000000000       29.984276587162    
  14.000000000000       52.423623945692    
  14.400000000000       27.553756280728    
  14.800000000000       40.072067738680    
  15.200000000000       65.095595646393    
  15.600000000000       22.506351582752    
  16.000000000000       22.664694146995    
  16.400000000000       19.976769404775    
  16.800000000000       7.3957291227543    
  17.200000000000       10.074062699016    
  17.600000000000       15.182140667069    
  18.000000000000       2.5463858191270    
  18.400000000000       15.117767087184    
  18.800000000000       35.279067185472    
  19.200000000000       2.5376470718778    
  19.600000000000       15.199839528286    
  20.000000000000       5.0233583662751    
ZONE T= "Xw:     39.8300      Yw:     28.4100      Rw:    0.100000      Zwbot:     7.60000      Zwtop:     8.30000       Specie:  1 "
 0.40000000000000       0.0000000000000    
 0.80000000000000       0.0000000000000    
  1.2000000000000       0.0000000000000    
  1.6000000000000       0.0000000000000    
  2.0000000000000       0.0000000000000    
  2.4000000000000       0.0000000000000    
  2.8000000000000       0.0000000000000    
  3.2000000000000       5.0095673510445    
  3.6000000000000       12.438050979883    
  4.0000000000000       19.880594727043    
  4.4000000000000       25.015212825474    
  4.8000000000000       17.445671191158    
  5.2000000000000       27.556153128092    
  5.6000000000000       34.943610612208    
  6.0000000000000       32.379022507305    
  6.4000000000000       15.018122600806    
  6.8000000000000       27.546322637623    
  7.2000000000000       24.946455476600    
  7.6000000000000       34.905244849776    
  8.0000000000000       42.366416240313    
  8.4000000000000       27.556089551879    
  8.8000000000000       67.631350133903    
  9.2000000000000       47.360452500207    
  9.6000000000000       50.153393391951    
  10.000000000000       17.464119537121    
  10.400000000000       37.494417455273    
  10.800000000000       49.902104665889    
  11.200000000000       32.515408851981    
  11.600000000000       30.114051041210    
  12.000000000000       52.349224310910    
  12.400000000000       32.556228623235    
  12.800000000000       35.028168574186    
  13.200000000000       35.086135047050    
  13.600000000000       52.528828511613    
  14.000000000000       32.632449187456    
  14.400000000000       55.035477002507    
  14.800000000000       37.535075842361    
  15.200000000000       22.608983613092    
  15.600000000000       37.562668803749    
  16.000000000000       17.549788671946    
  16.400000000000       39.678488172079    
  16.800000000000       32.442911766410    
  17.200000000000       22.463171722877    
  17.600000000000       30.094250849439    
  18.000000000000       47.514215591395    
  18.400000000000       35.002041400337    
  18.800000000000       20.037467688847    
  19.200000000000       22.422639080251    
  19.600000000000       19.826799379694    
  20.000000000000       15.061596420376    
ZONE T= "Xw:     39.8300      Yw:     28.5100      Rw:    0.100000      Zwbot:     4.50000      Zwtop:     5.00000       Specie:  1 "
 0.40000000000000       42.589823537201    
 0.80000000000000       7.4460828668713    
  1.2000000000000       9.8876147449882    
  1.6000000000000       22.329204582234    
  2.0000000000000       9.9142485653637    
  2.4000000000000       9.9630547293577    
  2.8000000000000       32.730362579504    
  3.2000000000000       14.932167086727    
  3.6000000000000       25.005500175070    
  4.0000000000000       30.127296698740    
  4.4000000000000       22.377366251097    
  4.8000000000000       25.032100528555    
  5.2000000000000       27.416405174154    
  5.6000000000000       27.577283699998    
  6.0000000000000       39.940965559087    
  6.4000000000000       44.933111516054    
  6.8000000000000       30.122367907622    
  7.2000000000000       40.035438952514    
  7.6000000000000       17.555574702594    
  8.0000000000000       49.771437596455    
  8.4000000000000       39.832778717027    
  8.8000000000000       32.458979747065    
  9.2000000000000       32.436669257199    
  9.6000000000000       14.942854982252    
  10.000000000000       0.0000000000000    
  10.400000000000       24.977400425138    
  10.800000000000       27.420868636771    
  11.200000000000       9.9743671091300    
  11.600000000000       27.502355826451    
  12.000000000000       34.947185866659    
  12.400000000000       20.028948945230    
  12.800000000000       19.999725127130    
  13.200000000000       0.0000000000000    
  13.600000000000       12.439662105804    
  14.000000000000       25.015259834152    
  14.400000000000       12.550883687905    
  14.800000000000       4.9516237167185    
  15.200000000000       5.0149824045135    
  15.600000000000       9.9820270852819    
  16.000000000000       2.5074912022568    
  16.400000000000       10.018421782655    
  16.800000000000       0.0000000000000    
  17.200000000000       5.0092108913273    
  17.600000000000       5.0149824045135    
  18.000000000000       2.5074912022568    
  18.400000000000       5.0149824045135    
  18.800000000000       0.0000000000000    
  19.200000000000       0.0000000000000    
  19.600000000000       0.0000000000000    
  20.000000000000       0.0000000000000    
ZONE T= "Xw:     39.5300      Yw:     34.0100      Rw:    0.100000      Zwbot:     16.7000      Zwtop:     17.3000       Specie:  1 "
 0.40000000000000       7.5470547335106    
 0.80000000000000       0.0000000000000    
  1.2000000000000       4.9307728546815    
  1.6000000000000       0.0000000000000    
  2.0000000000000       2.4905684980408    
  2.4000000000000       2.4905684980408    
  2.8000000000000       7.5970016589504    
  3.2000000000000       7.4856828949993    
  3.6000000000000       12.561197823572    
  4.0000000000000       29.991148001790    
  4.4000000000000       12.393497699679    
  4.8000000000000       15.096947470224    
  5.2000000000000       15.089145299560    
  5.6000000000000       12.459294882039    
  6.0000000000000       17.518123272478    
  6.4000000000000       22.531449867350    
  6.8000000000000       12.512749012640    
  7.2000000000000       4.9887954736509    
  7.6000000000000       20.086047701334    
  8.0000000000000       17.567146900950    
  8.4000000000000       30.049432181878    
  8.8000000000000       37.543681043778    
  9.2000000000000       40.060892533701    
  9.6000000000000       25.050820350146    
  10.000000000000       20.128405907243    
  10.400000000000       27.620751818288    
  10.800000000000       35.143694686169    
  11.200000000000       25.179454753798    
  11.600000000000       27.618071785256    
  12.000000000000       7.5235259540302    
  12.400000000000       25.046374345029    
  12.800000000000       20.021565739047    
  13.200000000000       10.000185460725    
  13.600000000000       9.9930212905813    
  14.000000000000       24.856994312005    
  14.400000000000       19.961301593349    
  14.800000000000       19.978699269398    
  15.200000000000       19.928308152113    
  15.600000000000       10.017621995283    
  16.000000000000       32.542091436233    
  16.400000000000       17.476633406234    
  16.800000000000       22.377358624826    
  17.200000000000       7.4213527581654    
  17.600000000000       17.435418316530    
  18.000000000000       12.579922953367    
  18.400000000000       4.9271590945907    
  18.800000000000       7.5219402428905    
  19.200000000000       12.489752230165    
  19.600000000000       14.967760501229    
  20.000000000000       7.5586190872085    
ZONE T= "Xw:     39.5300      Yw:     34.1100      Rw:    0.100000      Zwbot:     13.5000      Zwtop:     14.0000       Specie:  1 "
 0.40000000000000       0.0000000000000    
 0.80000000000000       0.0000000000000    
  1.2000000000000       0.0000000000000    
  1.6000000000000       0.0000000000000    
  2.0000000000000       2.4832264388817    
  2.4000000000000       0.0000000000000    
  2.8000000000000       0.0000000000000    
  3.2000000000000       0.0000000000000    
  3.6000000000000       0.0000000000000    
  4.0000000000000       4.9664528777634    
  4.4000000000000       2.5033878853411    
  4.8000000000000       15.094545488195    
  5.2000000000000       2.5182315205708    
  5.6000000000000       0.0000000000000    
  6.0000000000000       12.510863394207    
  6.4000000000000       5.0321084500906    
  6.8000000000000       0.0000000000000    
  7.2000000000000       12.479280396807    
  7.6000000000000       7.5462168260825    
  8.0000000000000       7.5025143506945    
  8.4000000000000       14.960999844527    
  8.8000000000000       12.518974105791    
  9.2000000000000       10.031363720115    
  9.6000000000000       10.048952661939    
  10.000000000000       15.007335429394    
  10.400000000000       14.999442170853    
  10.800000000000       22.632775080432    
  11.200000000000       9.9847481392036    
  11.600000000000       22.482534329274    
  12.000000000000       19.951427606264    
  12.400000000000       5.0072555512177    
  12.800000000000       9.9552262254293    
  13.200000000000       12.512825373736    
  13.600000000000       14.964498392953    
  14.000000000000       22.408805083335    
  14.400000000000       17.389932163443    
  14.800000000000       20.005903616733    
  15.200000000000       34.982554519099    
  15.600000000000       17.376903465889    
  16.000000000000       12.501925447889    
  16.400000000000       15.014743546876    
  16.800000000000       17.440455870519    
  17.200000000000       12.502386596784    
  17.600000000000       24.959528706998    
  18.000000000000       37.351089286145    
  18.400000000000       27.521521674422    
  18.800000000000       12.453014205884    
  19.200000000000       7.5089237936944    
  19.600000000000       22.289789300424    
  20.000000000000       2.4736457934729    
ZONE T= "Xw:     39.4300      Yw:     34.0100      Rw:    0.100000      Zwbot:     10.5000      Zwtop:     11.1000       Specie:  1 "
 0.40000000000000       29.990030012064    
 0.80000000000000       4.9997456149846    
  1.2000000000000       22.492723547283    
  1.6000000000000       22.579280966456    
  2.0000000000000       14.967610842998    
  2.4000000000000       25.074852392732    
  2.8000000000000       40.086721096645    
  3.2000000000000       12.442528704309    
  3.6000000000000       20.010420092483    
  4.0000000000000       17.543744243530    
  4.4000000000000       14.984544937754    
  4.8000000000000       24.999669289261    
  5.2000000000000       27.473247201307    
  5.6000000000000       37.433139438596    
  6.0000000000000       34.871294751485    
  6.4000000000000       29.910064267140    
  6.8000000000000       25.066228211054    
  7.2000000000000       39.948198018133    
  7.6000000000000       27.550482640855    
  8.0000000000000       25.012810581820    
  8.4000000000000       25.016745504922    
  8.8000000000000       39.877080113889    
  9.2000000000000       25.045434215340    
  9.6000000000000       32.421656043536    
  10.000000000000       57.288358281881    