 TITLE="TECPLOT input file: Breakthrough Curves" 
 VARIABLES="Time" "Concentrations" 
ZONE T= "Xw:     39.9300      Yw:     22.4100      Rw:    0.100000      Zwbot:     16.5000      Zwtop:     17.0000       Specie:  1 "
  0.0000000000000       0.0000000000000    
  0.0000000000000       0.0000000000000    
  0.0000000000000       0.0000000000000    
  0.0000000000000       0.0000000000000    
  0.0000000000000       0.0000000000000    
  0.0000000000000       0.0000000000000    
  0.0000000000000       0.0000000000000    
  0.0000000000000       0.0000000000000    
  0.0000000000000       0.0000000000000    
  0.0000000000000       0.0000000000000    
  0.0000000000000       0.0000000000000    
  0.0000000000000       0.0000000000000    
  0.0000000000000       0.0000000000000    
  0.0000000000000       0.0000000000000    
  0.0000000000000       0.0000000000000    
  0.0000000000000       0.0000000000000    
  0.0000000000000       0.0000000000000    
  0.0000000000000       0.0000000000000    
  0.0000000000000       0.0000000000000    
  0.0000000000000       0.0000000000000    
  0.0000000000000       0.0000000000000    
  0.0000000000000       0.0000000000000    
  0.0000000000000       0.0000000000000    
  0.0000000000000       0.0000000000000    
  0.0000000000000       0.0000000000000    
  0.0000000000000       0.0000000000000    
  0.0000000000000       0.0000000000000    
  0.0000000000000       0.0000000000000    
  0.0000000000000       0.0000000000000    
  0.0000000000000       0.0000000000000    
  0.0000000000000       0.0000000000000    
  0.0000000000000       0.0000000000000    
  0.0000000000000       0.0000000000000    
  0.0000000000000       0.0000000000000    
  0.0000000000000       0.0000000000000    
  0.0000000000000       0.0000000000000    
  0.0000000000000       0.0000000000000    
  0.0000000000000       0.0000000000000    
  0.0000000000000       0.0000000000000    
  0.0000000000000       0.0000000000000    
  0.0000000000000       0.0000000000000    
  0.0000000000000       0.0000000000000    
  0.0000000000000       0.0000000000000    
  0.0000000000000       0.0000000000000    
  0.0000000000000       0.0000000000000    
  0.0000000000000       0.0000000000000    
  0.0000000000000       0.0000000000000    
  0.0000000000000       0.0000000000000    
  0.0000000000000       0.0000000000000    
  0.0000000000000       0.0000000000000    
ZONE T= "Xw:     39.9300      Yw:     22.4100      Rw:    0.100000      Zwbot:     13.5000      Zwtop:     14.0000       Specie:  1 "
 0.40000000000000       0.0000000000000    
 0.80000000000000       0.0000000000000    
  1.2000000000000       0.0000000000000    
  1.6000000000000       0.0000000000000    
  2.0000000000000       0.0000000000000    
  2.4000000000000       0.0000000000000    
  2.8000000000000       0.0000000000000    
  3.2000000000000       0.0000000000000    
  3.6000000000000       0.0000000000000    
  4.0000000000000       0.0000000000000    
  4.4000000000000       0.0000000000000    
  4.8000000000000       0.0000000000000    
  5.2000000000000       0.0000000000000    
  5.6000000000000       0.0000000000000    
  6.0000000000000       0.0000000000000    
  6.4000000000000       0.0000000000000    
  6.8000000000000       0.0000000000000    
  7.2000000000000       0.0000000000000    
  7.6000000000000       0.0000000000000    
  8.0000000000000       0.0000000000000    
  8.4000000000000       0.0000000000000    
  8.8000000000000       0.0000000000000    
  9.2000000000000       0.0000000000000    
  9.6000000000000       2.4853412686779    
  10.000000000000       0.0000000000000    
  10.400000000000       0.0000000000000    
  10.800000000000       0.0000000000000    
  11.200000000000       7.4560238060336    
  11.600000000000       0.0000000000000    
  12.000000000000       0.0000000000000    
  12.400000000000       0.0000000000000    
  12.800000000000       0.0000000000000    
  13.200000000000       0.0000000000000    
  13.600000000000       0.0000000000000    
  14.000000000000       0.0000000000000    
  14.400000000000       0.0000000000000    
  14.800000000000       5.0019572583762    
  15.200000000000       0.0000000000000    
  15.600000000000       7.4921905904561    
  16.000000000000       7.5208199427566    
  16.400000000000       7.5116061239107    
  16.800000000000       2.4876704784782    
  17.200000000000       2.4876704784782    
  17.600000000000       4.9753409569563    
  18.000000000000       4.9804680465892    
  18.400000000000       7.4658481198216    
  18.800000000000       5.0035620513071    
  19.200000000000       9.9813564331176    
  19.600000000000       12.438104511898    
  20.000000000000       4.9762865184187    
ZONE T= "Xw:     39.9300      Yw:     22.3100      Rw:    0.100000      Zwbot:     10.5000      Zwtop:     11.0000       Specie:  1 "
 0.40000000000000       0.0000000000000    
 0.80000000000000       0.0000000000000    
  1.2000000000000       0.0000000000000    
  1.6000000000000       0.0000000000000    
  2.0000000000000       0.0000000000000    
  2.4000000000000       0.0000000000000    
  2.8000000000000       0.0000000000000    
  3.2000000000000       0.0000000000000    
  3.6000000000000       0.0000000000000    
  4.0000000000000       0.0000000000000    
  4.4000000000000       0.0000000000000    
  4.8000000000000       0.0000000000000    
  5.2000000000000       12.464109650550    
  5.6000000000000       7.4659717302054    
  6.0000000000000       7.4329554581597    
  6.4000000000000       12.433035529231    
  6.8000000000000       12.506214338302    
  7.2000000000000       22.421641856871    
  7.6000000000000       30.116559350966    
  8.0000000000000       30.091336389632    
  8.4000000000000       37.614870906098    
  8.8000000000000       25.017998913691    
  9.2000000000000       47.612356231142    
  9.6000000000000       25.015191102567    
  10.000000000000       62.701527443948    
  10.400000000000       40.100287058368    
  10.800000000000       35.139374471195    
  11.200000000000       25.041328873870    
  11.600000000000       27.572775400739    
  12.000000000000       19.962164758217    
  12.400000000000       12.516542835694    
  12.800000000000       29.981069975238    
  13.200000000000       25.038540439661    
  13.600000000000       22.472026887305    
  14.000000000000       10.018568794951    
  14.400000000000       15.013459883921    
  14.800000000000       4.9990927636720    
  15.200000000000       12.473666683177    
  15.600000000000       12.523507495057    
  16.000000000000       10.076348899988    
  16.400000000000       10.019536734883    
  16.800000000000       10.022669643748    
  17.200000000000       2.4904117868063    
  17.600000000000       24.967527399304    
  18.000000000000       10.024260376545    
  18.400000000000       7.5171870693884    
  18.800000000000       2.5068591350804    
  19.200000000000       0.0000000000000    
  19.600000000000       0.0000000000000    
  20.000000000000       0.0000000000000    
ZONE T= "Xw:     40.0300      Yw:     22.4100      Rw:    0.100000      Zwbot:     7.60000      Zwtop:     8.10000       Specie:  1 "
 0.40000000000000       0.0000000000000    
 0.80000000000000       0.0000000000000    
  1.2000000000000       0.0000000000000    
  1.6000000000000       0.0000000000000    
  2.0000000000000       0.0000000000000    
  2.4000000000000       0.0000000000000    
  2.8000000000000       0.0000000000000    
  3.2000000000000       0.0000000000000    
  3.6000000000000       0.0000000000000    
  4.0000000000000       0.0000000000000    
  4.4000000000000       0.0000000000000    
  4.8000000000000       0.0000000000000    
  5.2000000000000       2.5038146195366    
  5.6000000000000       7.5387572061716    
  6.0000000000000       7.5216324795001    
  6.4000000000000       24.973710468028    
  6.8000000000000       19.925534746055    
  7.2000000000000       32.463188874584    
  7.6000000000000       35.000432715300    
  8.0000000000000       17.476395284035    
  8.4000000000000       25.073348179662    
  8.8000000000000       24.983646623800    
  9.2000000000000       47.543267685704    
  9.6000000000000       30.037312758981    
  10.000000000000       49.948146286815    
  10.400000000000       47.496964788309    
  10.800000000000       47.461438786531    
  11.200000000000       22.476455168202    
  11.600000000000       24.963363144359    
  12.000000000000       35.047276105353    
  12.400000000000       42.386847169043    
  12.800000000000       42.542874437724    
  13.200000000000       37.432083157865    
  13.600000000000       44.962057953908    
  14.000000000000       39.879786143435    
  14.400000000000       27.413452350817    
  14.800000000000       49.913992043201    
  15.200000000000       47.616691760624    
  15.600000000000       37.504729429128    
  16.000000000000       9.9688112990973    
  16.400000000000       14.989829483720    
  16.800000000000       9.9947534530445    
  17.200000000000       39.931770447701    
  17.600000000000       7.4339831282070    
  18.000000000000       12.462701094956    
  18.400000000000       2.5088948597072    
  18.800000000000       4.9879846303300    
  19.200000000000       2.4746447204444    
  19.600000000000       5.0201443126689    
  20.000000000000       2.4746447204444    
ZONE T= "Xw:     39.9300      Yw:     22.4100      Rw:    0.100000      Zwbot:     4.50000      Zwtop:     5.00000       Specie:  1 "
 0.40000000000000       0.0000000000000    
 0.80000000000000       0.0000000000000    
  1.2000000000000       0.0000000000000    
  1.6000000000000       0.0000000000000    
  2.0000000000000       0.0000000000000    
  2.4000000000000       0.0000000000000    
  2.8000000000000       0.0000000000000    
  3.2000000000000       0.0000000000000    
  3.6000000000000       0.0000000000000    
  4.0000000000000       2.4843608179357    
  4.4000000000000       15.006344877094    
  4.8000000000000       4.9884776083030    
  5.2000000000000       14.969130128334    
  5.6000000000000       22.493460736244    
  6.0000000000000       17.524472582806    
  6.4000000000000       19.979596120345    
  6.8000000000000       19.978355620561    
  7.2000000000000       14.946681335321    
  7.6000000000000       19.973880435401    
  8.0000000000000       44.814941990708    
  8.4000000000000       19.917271922119    
  8.8000000000000       19.966861755737    
  9.2000000000000       37.592811016797    
  9.6000000000000       24.947415363698    
  10.000000000000       24.857679835858    
  10.400000000000       12.445676354298    
  10.800000000000       20.019736363493    
  11.200000000000       39.933974609772    
  11.600000000000       14.970675200552    
  12.000000000000       29.854525003196    
  12.400000000000       24.945612254618    
  12.800000000000       24.982254192493    
  13.200000000000       32.489734431502    
  13.600000000000       25.053722186222    
  14.000000000000       27.469052117092    
  14.400000000000       14.971691690183    
  14.800000000000       22.494504323488    
  15.200000000000       10.006354957451    
  15.600000000000       12.540174807266    
  16.000000000000       7.4505734314711    
  16.400000000000       9.9722508143300    
  16.800000000000       2.4750324100557    
  17.200000000000       2.4967086308132    
  17.600000000000       5.0442409085357    
  18.000000000000       2.4967086308132    
  18.400000000000       0.0000000000000    
  18.800000000000       0.0000000000000    
  19.200000000000       4.9934172616265    
  19.600000000000       2.5132221946915    
  20.000000000000       0.0000000000000    
ZONE T= "Xw:     39.8300      Yw:     28.4100      Rw:    0.100000      Zwbot:     16.5000      Zwtop:     17.0000       Specie:  1 "
 0.40000000000000       0.0000000000000    
 0.80000000000000       0.0000000000000    
  1.2000000000000       0.0000000000000    
  1.6000000000000       0.0000000000000    
  2.0000000000000       0.0000000000000    
  2.4000000000000       0.0000000000000    
  2.8000000000000       0.0000000000000    
  3.2000000000000       0.0000000000000    
  3.6000000000000       0.0000000000000    
  4.0000000000000       0.0000000000000    
  4.4000000000000       0.0000000000000    
  4.8000000000000       14.838099577395    
  5.2000000000000       2.4700749448233    
  5.6000000000000       4.9445623667605    
  6.0000000000000       4.9401498896466    
  6.4000000000000       5.0044898320181    
  6.8000000000000       22.399528065513    
  7.2000000000000       15.057949488967    
  7.6000000000000       10.028546970500    
  8.0000000000000       5.0006496245739    
  8.4000000000000       12.409321442577    
  8.8000000000000       14.987793219900    
  9.2000000000000       19.968876563285    
  9.6000000000000       19.963385317264    
  10.000000000000       17.416070700983    
  10.400000000000       4.9692420503806    
  10.800000000000       14.954469691702    
  11.200000000000       10.021728160553    
  11.600000000000       32.397681177577    
  12.000000000000       22.484603446426    
  12.400000000000       20.007407853866    
  12.800000000000       14.973496699350    
  13.200000000000       15.102205977231    
  13.600000000000       12.538620483047    
  14.000000000000       20.066955036143    
  14.400000000000       17.578522226365    
  14.800000000000       12.512589133552    
  15.200000000000       12.551120921110    
  15.600000000000       10.015961413193    
  16.000000000000       12.542400751331    
  16.400000000000       10.054095482069    
  16.800000000000       12.552920862629    
  17.200000000000       15.099924897955    
  17.600000000000       17.524342467978    
  18.000000000000       15.067133049518    
  18.400000000000       9.9826644182649    
  18.800000000000       0.0000000000000    
  19.200000000000       4.9885538546827    
  19.600000000000       10.020521157039    
  20.000000000000       9.9225810420533    
ZONE T= "Xw:     39.9300      Yw:     28.4100      Rw:    0.100000      Zwbot:     13.5000      Zwtop:     14.0000       Specie:  1 "
 0.40000000000000       0.0000000000000    
 0.80000000000000       0.0000000000000    
  1.2000000000000       0.0000000000000    
  1.6000000000000       0.0000000000000    
  2.0000000000000       0.0000000000000    
  2.4000000000000       0.0000000000000    
  2.8000000000000       0.0000000000000    
  3.2000000000000       0.0000000000000    
  3.6000000000000       0.0000000000000    
  4.0000000000000       0.0000000000000    
  4.4000000000000       0.0000000000000    
  4.8000000000000       0.0000000000000    
  5.2000000000000       0.0000000000000    
  5.6000000000000       0.0000000000000    
  6.0000000000000       0.0000000000000    
  6.4000000000000       0.0000000000000    
  6.8000000000000       0.0000000000000    
  7.2000000000000       0.0000000000000    
  7.6000000000000       0.0000000000000    
  8.0000000000000       0.0000000000000    
  8.4000000000000       0.0000000000000    
  8.8000000000000       0.0000000000000    
  9.2000000000000       0.0000000000000    
  9.6000000000000       0.0000000000000    
  10.000000000000       5.0278973459265    
  10.400000000000       2.5139486729633    
  10.800000000000       5.0278973459265    
  11.200000000000       7.4498299080506    
  11.600000000000       7.4540779446618    
  12.000000000000       2.5139486729633    
  12.400000000000       5.0278973459265    
  12.800000000000       7.4977326397394    
  13.200000000000       0.0000000000000    
  13.600000000000       7.4934846031282    
  14.000000000000       0.0000000000000    
  14.400000000000       0.0000000000000    
  14.800000000000       2.5058119896575    
  15.200000000000       0.0000000000000    
  15.600000000000       0.0000000000000    
  16.000000000000       0.0000000000000    
  16.400000000000       0.0000000000000    
  16.800000000000       0.0000000000000    
  17.200000000000       0.0000000000000    
  17.600000000000       2.5058119896575    
  18.000000000000       5.0334550780700    
  18.400000000000       10.061352423996    
  18.800000000000       5.0116239793151    
  19.200000000000       7.5015354247364    
  19.600000000000       10.017947777218    
  20.000000000000       7.5211609844349    
ZONE T= "Xw:     39.8300      Yw:     28.4100      Rw:    0.100000      Zwbot:     10.6000      Zwtop:     11.2000       Specie:  1 "
 0.40000000000000       0.0000000000000    
 0.80000000000000       0.0000000000000    
  1.2000000000000       0.0000000000000    
  1.6000000000000       2.4747087353204    
  2.0000000000000       0.0000000000000    
  2.4000000000000       0.0000000000000    
  2.8000000000000       7.5315578389905    
  3.2000000000000       12.469182743752    
  3.6000000000000       7.5338272855730    
  4.0000000000000       14.960472816394    
  4.4000000000000       15.061980954690    
  4.8000000000000       12.441127743294    
  5.2000000000000       15.029536532398    
  5.6000000000000       20.064029765081    
  6.0000000000000       15.030184849419    
  6.4000000000000       37.464689964522    
  6.8000000000000       25.046612807658    
  7.2000000000000       22.572237804842    
  7.6000000000000       27.611419377421    
  8.0000000000000       25.084042484012    
  8.4000000000000       30.058076139947    
  8.8000000000000       27.602675560031    
  9.2000000000000       25.135001708076    
  9.6000000000000       22.421854770380    
  10.000000000000       47.635389813344    
  10.400000000000       29.934039212839    
  10.800000000000       17.397723592424    
  11.200000000000       17.579645287990    
  11.600000000000       17.509471239795    
  12.000000000000       20.047747874448    
  12.400000000000       17.460890701920    
  12.800000000000       30.114259983034    
  13.200000000000       35.053310272920    
  13.600000000000       17.533539606194    
  14.000000000000       20.050576448316    
  14.400000000000       27.565530567463    
  14.800000000000       9.9798914851251    
  15.200000000000       17.484590458059    
  15.600000000000       17.515799886071    
  16.000000000000       12.587310806400    
  16.400000000000       12.490288651230    
  16.800000000000       9.9530475509230    
  17.200000000000       5.0530808401005    
  17.600000000000       12.523873676171    
  18.000000000000       12.523873676171    
  18.400000000000       2.5267115786064    
  18.800000000000       12.539390130141    
  19.200000000000       17.440745495454    
  19.600000000000       2.4940360208377    
  20.000000000000       2.4738056157424    
ZONE T= "Xw:     39.8300      Yw:     28.4100      Rw:    0.100000      Zwbot:     7.60000      Zwtop:     8.30000       Specie:  1 "
 0.40000000000000       0.0000000000000    
 0.80000000000000       0.0000000000000    
  1.2000000000000       0.0000000000000    
  1.6000000000000       0.0000000000000    
  2.0000000000000       10.031473437564    
  2.4000000000000       2.5197778008378    
  2.8000000000000       0.0000000000000    
  3.2000000000000       0.0000000000000    
  3.6000000000000       0.0000000000000    
  4.0000000000000       12.469042690597    
  4.4000000000000       15.089496868588    
  4.8000000000000       12.413770451741    
  5.2000000000000       24.875132388552    
  5.6000000000000       12.434450926837    
  6.0000000000000       17.528831631885    
  6.4000000000000       30.031396144488    
  6.8000000000000       22.441409915057    
  7.2000000000000       24.959065941804    
  7.6000000000000       37.413577627216    
  8.0000000000000       59.976451741371    
  8.4000000000000       29.898873575681    
  8.8000000000000       20.060259516086    
  9.2000000000000       47.521855347121    
  9.6000000000000       37.695433571362    
  10.000000000000       42.606116312695    
  10.400000000000       24.931208871218    
  10.800000000000       17.514780770585    
  11.200000000000       34.971637056399    
  11.600000000000       52.524745620074    
  12.000000000000       15.070621807682    
  12.400000000000       42.495201414502    
  12.800000000000       35.049310692873    
  13.200000000000       47.606276380944    
  13.600000000000       59.929251896839    
  14.000000000000       42.464114909198    
  14.400000000000       47.509697778237    
  14.800000000000       49.862735432264    
  15.200000000000       39.978610236761    
  15.600000000000       39.911079449813    
  16.000000000000       25.062552515773    
  16.400000000000       37.482835475563    
  16.800000000000       37.536670955705    
  17.200000000000       7.4285296423953    
  17.600000000000       57.308996915939    
  18.000000000000       29.975569931031    
  18.400000000000       34.834100363247    
  18.800000000000       17.433282501754    
  19.200000000000       27.388584255110    
  19.600000000000       39.921927625594    
  20.000000000000       24.898058907386    
ZONE T= "Xw:     39.8300      Yw:     28.5100      Rw:    0.100000      Zwbot:     4.50000      Zwtop:     5.00000       Specie:  1 "
 0.40000000000000       9.9213101934535    
 0.80000000000000       17.292927440340    
  1.2000000000000       24.839393155137    
  1.6000000000000       19.943727841085    
  2.0000000000000       22.429824502074    
  2.4000000000000       17.575361861218    
  2.8000000000000       14.977651126240    
  3.2000000000000       39.838831318496    
  3.6000000000000       37.389457544983    
  4.0000000000000       39.730323470998    
  4.4000000000000       60.020024616030    
  4.8000000000000       44.922136212002    
  5.2000000000000       42.735554531770    
  5.6000000000000       45.171584769303    
  6.0000000000000       37.449559034295    
  6.4000000000000       22.480768776175    
  6.8000000000000       17.544927449894    
  7.2000000000000       29.914170139099    
  7.6000000000000       34.920365929529    
  8.0000000000000       14.908630464301    
  8.4000000000000       15.046767137904    
  8.8000000000000       30.000420780113    
  9.2000000000000       35.068701943428    
  9.6000000000000       22.575477599540    
  10.000000000000       37.355452603802    
  10.400000000000       34.879491950312    
  10.800000000000       32.375359211571    
  11.200000000000       14.962631952146    
  11.600000000000       17.607115864087    
  12.000000000000       14.965710591765    
  12.400000000000       7.4203176225040    
  12.800000000000       7.4203176225040    
  13.200000000000       7.4378461778679    
  13.600000000000       2.4822034851833    
  14.000000000000       2.4822034851833    
  14.400000000000       0.0000000000000    
  14.800000000000       0.0000000000000    
  15.200000000000       0.0000000000000    
  15.600000000000       0.0000000000000    
  16.000000000000       0.0000000000000    
  16.400000000000       0.0000000000000    
  16.800000000000       0.0000000000000    
  17.200000000000       0.0000000000000    
  17.600000000000       0.0000000000000    
  18.000000000000       0.0000000000000    
  18.400000000000       0.0000000000000    
  18.800000000000       0.0000000000000    
  19.200000000000       0.0000000000000    
  19.600000000000       0.0000000000000    
  20.000000000000       0.0000000000000    
ZONE T= "Xw:     39.5300      Yw:     34.0100      Rw:    0.100000      Zwbot:     16.7000      Zwtop:     17.3000       Specie:  1 "
 0.40000000000000       4.9791309019633    
 0.80000000000000       0.0000000000000    
  1.2000000000000       2.4878934719877    
  1.6000000000000       2.4737234142745    
  2.0000000000000       0.0000000000000    
  2.4000000000000       0.0000000000000    
  2.8000000000000       0.0000000000000    
  3.2000000000000       0.0000000000000    
  3.6000000000000       12.483606698990    
  4.0000000000000       32.496213715367    
  4.4000000000000       7.5294499492859    
  4.8000000000000       22.433559782734    
  5.2000000000000       12.467756017820    
  5.6000000000000       17.530198681230    
  6.0000000000000       42.625545969272    
  6.4000000000000       42.496868115875    
  6.8000000000000       17.447200000276    
  7.2000000000000       7.4246958160108    
  7.6000000000000       4.9466145203222    
  8.0000000000000       24.805226063243    
  8.4000000000000       4.9883241075511    
  8.8000000000000       12.505332911012    
  9.2000000000000       19.994825840490    
  9.6000000000000       34.963779180347    
  10.000000000000       32.353043589444    
  10.400000000000       22.441194661515    
  10.800000000000       17.533608100898    
  11.200000000000       17.409147001467    
  11.600000000000       24.982117932664    
  12.000000000000       27.428503859540    
  12.400000000000       19.989555411503    
  12.800000000000       9.9427532888733    
  13.200000000000       17.490406427779    
  13.600000000000       25.001050353531    
  14.000000000000       17.463524160770    
  14.400000000000       29.956694986871    
  14.800000000000       24.948511885642    
  15.200000000000       29.852996841859    
  15.600000000000       29.827766701644    
  16.000000000000       22.462032653585    
  16.400000000000       24.864887223797    
  16.800000000000       12.494844592423    
  17.200000000000       22.515379844901    
  17.600000000000       22.375521045371    
  18.000000000000       14.956762318586    
  18.400000000000       22.516388151783    
  18.800000000000       12.542127940025    
  19.200000000000       12.433851201479    
  19.600000000000       9.9514176436196    
  20.000000000000       7.4567607228020    
ZONE T= "Xw:     39.5300      Yw:     34.1100      Rw:    0.100000      Zwbot:     13.5000      Zwtop:     14.0000       Specie:  1 "
 0.40000000000000       0.0000000000000    
 0.80000000000000       0.0000000000000    
  1.2000000000000       0.0000000000000    
  1.6000000000000       0.0000000000000    
  2.0000000000000       0.0000000000000    
  2.4000000000000       0.0000000000000    
  2.8000000000000       0.0000000000000    
  3.2000000000000       0.0000000000000    
  3.6000000000000       0.0000000000000    
  4.0000000000000       0.0000000000000    
  4.4000000000000       0.0000000000000    
  4.8000000000000       4.9917395857595    
  5.2000000000000       12.519095792442    
  5.6000000000000       7.4645896862825    
  6.0000000000000       7.5040149115338    
  6.4000000000000       17.420609728166    
  6.8000000000000       22.465224861865    
  7.2000000000000       14.984609327496    
  7.6000000000000       22.347730698395    
  8.0000000000000       27.457661523689    
  8.4000000000000       24.940258726749    
  8.8000000000000       14.951645508191    
  9.2000000000000       9.9216363636364    
  9.6000000000000       0.0000000000000    
  10.000000000000       0.0000000000000    
  10.400000000000       5.0089082654480    
  10.800000000000       4.9614257374326    
  11.200000000000       0.0000000000000    
  11.600000000000       7.5442345253214    
  12.000000000000       9.9906893396125    
  12.400000000000       7.4675530495288    
  12.800000000000       5.0259219630328    
  13.200000000000       0.0000000000000    
  13.600000000000       17.529483268518    
  14.000000000000       12.508527497340    
  14.400000000000       27.488797076092    
  14.800000000000       32.405353368205    
  15.200000000000       9.9478485486693    
  15.600000000000       2.5264370378149    
  16.000000000000       2.4881937677907    
  16.400000000000       5.0172581536018    
  16.800000000000       22.424703961162    
  17.200000000000       4.9690785014632    
  17.600000000000       17.522347539590    
  18.000000000000       20.030156785980    
  18.400000000000       7.4656426852733    
  18.800000000000       24.975879089112    
  19.200000000000       27.475778228589    
  19.600000000000       27.469078065507    
  20.000000000000       12.395454748601    
ZONE T= "Xw:     39.4300      Yw:     34.0100      Rw:    0.100000      Zwbot:     10.5000      Zwtop:     11.1000       Specie:  1 "
 0.40000000000000       25.086570776762    
 0.80000000000000       4.9421143417534    
  1.2000000000000       5.0037681343884    
  1.6000000000000       10.042002079014    
  2.0000000000000       14.927406469883    
  2.4000000000000       22.429725225404    
  2.8000000000000       9.9224083814287    
  3.2000000000000       32.500040800399    
  3.6000000000000       22.529740609581    
  4.0000000000000       20.065552647120    
  4.4000000000000       47.439511241767    
  4.8000000000000       54.895959201484    
  5.2000000000000       64.746423194490    
  5.6000000000000       29.847165798379    
  6.0000000000000       44.870151245306    
  6.4000000000000       19.921518197586    
  6.8000000000000       29.885938184961    
  7.2000000000000       24.898602774714    
  7.6000000000000       42.386949829797    
  8.0000000000000       52.543995823932    
  8.4000000000000       30.039817448228    
  8.8000000000000       25.091308115974    
  9.2000000000000       20.017882328966    
  9.6000000000000       39.956144395417    
  10.000000000000       40.035249601802    