 TITLE="TECPLOT input file: Breakthrough Curves" 
 VARIABLES="Time" "Concentrations" 
ZONE T= "Xw:     39.9300      Yw:     22.4100      Rw:    0.100000      Zwbot:     16.5000      Zwtop:     17.0000       Specie:  1 "
 0.40000000000000       0.0000000000000    
 0.80000000000000       0.0000000000000    
  1.2000000000000       0.0000000000000    
  1.6000000000000       0.0000000000000    
  2.0000000000000       0.0000000000000    
  2.4000000000000       0.0000000000000    
  2.8000000000000       0.0000000000000    
  3.2000000000000       0.0000000000000    
  3.6000000000000       0.0000000000000    
  4.0000000000000       0.0000000000000    
  4.4000000000000       0.0000000000000    
  4.8000000000000       0.0000000000000    
  5.2000000000000       0.0000000000000    
  5.6000000000000       0.0000000000000    
  6.0000000000000       0.0000000000000    
  6.4000000000000       0.0000000000000    
  6.8000000000000       0.0000000000000    
  7.2000000000000       0.0000000000000    
  7.6000000000000       0.0000000000000    
  8.0000000000000       0.0000000000000    
  8.4000000000000       0.0000000000000    
  8.8000000000000       0.0000000000000    
  9.2000000000000       0.0000000000000    
  9.6000000000000       0.0000000000000    
  10.000000000000       0.0000000000000    
  10.400000000000       0.0000000000000    
  10.800000000000       0.0000000000000    
  11.200000000000       0.0000000000000    
  11.600000000000       0.0000000000000    
  12.000000000000       0.0000000000000    
  12.400000000000       0.0000000000000    
  12.800000000000       0.0000000000000    
  13.200000000000       0.0000000000000    
  13.600000000000       0.0000000000000    
  14.000000000000       4.9991452414470    
  14.400000000000       4.9661563109827    
  14.800000000000       2.4830781554914    
  15.200000000000       0.0000000000000    
  15.600000000000       2.4830781554914    
  16.000000000000       2.4830781554914    
  16.400000000000       0.0000000000000    
  16.800000000000       0.0000000000000    
  17.200000000000       0.0000000000000    
  17.600000000000       2.4830781554914    
  18.000000000000       4.9661563109827    
  18.400000000000       0.0000000000000    
  18.800000000000       0.0000000000000    
  19.200000000000       2.4791034476630    
  19.600000000000       0.0000000000000    
  20.000000000000       0.0000000000000    
ZONE T= "Xw:     39.9300      Yw:     22.4100      Rw:    0.100000      Zwbot:     13.5000      Zwtop:     14.0000       Specie:  1 "
 0.40000000000000       0.0000000000000    
 0.80000000000000       0.0000000000000    
  1.2000000000000       0.0000000000000    
  1.6000000000000       0.0000000000000    
  2.0000000000000       0.0000000000000    
  2.4000000000000       0.0000000000000    
  2.8000000000000       0.0000000000000    
  3.2000000000000       0.0000000000000    
  3.6000000000000       0.0000000000000    
  4.0000000000000       0.0000000000000    
  4.4000000000000       0.0000000000000    
  4.8000000000000       0.0000000000000    
  5.2000000000000       0.0000000000000    
  5.6000000000000       0.0000000000000    
  6.0000000000000       0.0000000000000    
  6.4000000000000       0.0000000000000    
  6.8000000000000       0.0000000000000    
  7.2000000000000       0.0000000000000    
  7.6000000000000       0.0000000000000    
  8.0000000000000       0.0000000000000    
  8.4000000000000       0.0000000000000    
  8.8000000000000       0.0000000000000    
  9.2000000000000       0.0000000000000    
  9.6000000000000       0.0000000000000    
  10.000000000000       0.0000000000000    
  10.400000000000       0.0000000000000    
  10.800000000000       0.0000000000000    
  11.200000000000       0.0000000000000    
  11.600000000000       0.0000000000000    
  12.000000000000       0.0000000000000    
  12.400000000000       0.0000000000000    
  12.800000000000       0.0000000000000    
  13.200000000000       0.0000000000000    
  13.600000000000       0.0000000000000    
  14.000000000000       0.0000000000000    
  14.400000000000       2.5256967086474    
  14.800000000000       0.0000000000000    
  15.200000000000       0.0000000000000    
  15.600000000000       0.0000000000000    
  16.000000000000       2.5256967086474    
  16.400000000000       0.0000000000000    
  16.800000000000       0.0000000000000    
  17.200000000000       12.457453517125    
  17.600000000000       19.907118207842    
  18.000000000000       12.474030007983    
  18.400000000000       7.4814568309409    
  18.800000000000       7.4660988012689    
  19.200000000000       12.465525960057    
  19.600000000000       12.404373274626    
  20.000000000000       2.4995726207235    
ZONE T= "Xw:     39.9300      Yw:     22.3100      Rw:    0.100000      Zwbot:     10.5000      Zwtop:     11.0000       Specie:  1 "
 0.40000000000000       0.0000000000000    
 0.80000000000000       0.0000000000000    
  1.2000000000000       0.0000000000000    
  1.6000000000000       0.0000000000000    
  2.0000000000000       0.0000000000000    
  2.4000000000000       0.0000000000000    
  2.8000000000000       0.0000000000000    
  3.2000000000000       0.0000000000000    
  3.6000000000000       0.0000000000000    
  4.0000000000000       0.0000000000000    
  4.4000000000000       0.0000000000000    
  4.8000000000000       0.0000000000000    
  5.2000000000000       12.563184506952    
  5.6000000000000       0.0000000000000    
  6.0000000000000       0.0000000000000    
  6.4000000000000       7.4934688773709    
  6.8000000000000       19.920464727506    
  7.2000000000000       7.4604226745575    
  7.6000000000000       20.009436740894    
  8.0000000000000       27.586054811686    
  8.4000000000000       40.092432892099    
  8.8000000000000       37.611221137482    
  9.2000000000000       55.128015430160    
  9.6000000000000       35.021872119778    
  10.000000000000       37.607352105039    
  10.400000000000       37.586174530914    
  10.800000000000       29.946220401124    
  11.200000000000       25.020320928978    
  11.600000000000       9.9733240169279    
  12.000000000000       22.508118523210    
  12.400000000000       27.395425310071    
  12.800000000000       17.461065865418    
  13.200000000000       17.494598819883    
  13.600000000000       17.439436547839    
  14.000000000000       12.527456836669    
  14.400000000000       19.984214853749    
  14.800000000000       24.890398017239    
  15.200000000000       10.009138710625    
  15.600000000000       12.538395703567    
  16.000000000000       10.034567259388    
  16.400000000000       4.9973523633569    
  16.800000000000       12.493333039752    
  17.200000000000       7.5255609765538    
  17.600000000000       9.9745864918292    
  18.000000000000       5.0273622268067    
  18.400000000000       0.0000000000000    
  18.800000000000       0.0000000000000    
  19.200000000000       0.0000000000000    
  19.600000000000       0.0000000000000    
  20.000000000000       0.0000000000000    
ZONE T= "Xw:     40.0300      Yw:     22.4100      Rw:    0.100000      Zwbot:     7.60000      Zwtop:     8.10000       Specie:  1 "
 0.40000000000000       0.0000000000000    
 0.80000000000000       0.0000000000000    
  1.2000000000000       0.0000000000000    
  1.6000000000000       0.0000000000000    
  2.0000000000000       0.0000000000000    
  2.4000000000000       0.0000000000000    
  2.8000000000000       0.0000000000000    
  3.2000000000000       0.0000000000000    
  3.6000000000000       0.0000000000000    
  4.0000000000000       0.0000000000000    
  4.4000000000000       2.4940096416901    
  4.8000000000000       0.0000000000000    
  5.2000000000000       14.976468151553    
  5.6000000000000       7.4895677561048    
  6.0000000000000       7.4765905460738    
  6.4000000000000       12.432113902585    
  6.8000000000000       14.929197292963    
  7.2000000000000       9.9527759392307    
  7.6000000000000       29.996583853840    
  8.0000000000000       42.573051211791    
  8.4000000000000       27.620637598947    
  8.8000000000000       57.639350472178    
  9.2000000000000       65.343052004343    
  9.6000000000000       40.013325778934    
  10.000000000000       67.400248719470    
  10.400000000000       67.514592150589    
  10.800000000000       67.169259401853    
  11.200000000000       59.754810502164    
  11.600000000000       69.675549173369    
  12.000000000000       47.440890190499    
  12.400000000000       52.500026845684    
  12.800000000000       44.995563566358    
  13.200000000000       35.063660428020    
  13.600000000000       30.075112202098    
  14.000000000000       22.452968943687    
  14.400000000000       19.992615171128    
  14.800000000000       22.553097967311    
  15.200000000000       40.067412089120    
  15.600000000000       35.081732393404    
  16.000000000000       50.008760566959    
  16.400000000000       22.473278632468    
  16.800000000000       12.479010165454    
  17.200000000000       12.534512745798    
  17.600000000000       12.526793750459    
  18.000000000000       9.9775926187386    
  18.400000000000       4.9763457996967    
  18.800000000000       12.438124848376    
  19.200000000000       17.411329330775    
  19.600000000000       2.5228914399018    
  20.000000000000       2.4784786441233    
ZONE T= "Xw:     39.9300      Yw:     22.4100      Rw:    0.100000      Zwbot:     4.50000      Zwtop:     5.00000       Specie:  1 "
 0.40000000000000       0.0000000000000    
 0.80000000000000       0.0000000000000    
  1.2000000000000       0.0000000000000    
  1.6000000000000       0.0000000000000    
  2.0000000000000       0.0000000000000    
  2.4000000000000       0.0000000000000    
  2.8000000000000       4.9880192833803    
  3.2000000000000       7.5106773874100    
  3.6000000000000       0.0000000000000    
  4.0000000000000       2.5225311500623    
  4.4000000000000       12.535709392216    
  4.8000000000000       7.4723226432336    
  5.2000000000000       22.379770782760    
  5.6000000000000       14.939606964775    
  6.0000000000000       7.4833282785420    
  6.4000000000000       22.482266363650    
  6.8000000000000       22.532838411173    
  7.2000000000000       27.519355369125    
  7.6000000000000       42.517584361979    
  8.0000000000000       27.549118176218    
  8.4000000000000       25.084392782047    
  8.8000000000000       34.840209121585    
  9.2000000000000       47.419676261915    
  9.6000000000000       29.934220855012    
  10.000000000000       47.423187872342    
  10.400000000000       37.429213467300    
  10.800000000000       24.895010611180    
  11.200000000000       29.983179496163    
  11.600000000000       44.940997853451    
  12.000000000000       47.470298260874    
  12.400000000000       22.404500488321    
  12.800000000000       12.505871021583    
  13.200000000000       5.0509918248040    
  13.600000000000       14.996169361529    
  14.000000000000       9.9060352201634    
  14.400000000000       20.073678235960    
  14.800000000000       35.157057360654    
  15.200000000000       9.9967700832067    
  15.600000000000       12.540767458939    
  16.000000000000       22.555434058863    
  16.400000000000       10.023408446870    
  16.800000000000       0.0000000000000    
  17.200000000000       15.074139346317    
  17.600000000000       0.0000000000000    
  18.000000000000       7.5133903452188    
  18.400000000000       4.9796671587981    
  18.800000000000       4.9836195846952    
  19.200000000000       7.4629100215791    
  19.600000000000       2.4980681480518    
  20.000000000000       4.9961362961037    
ZONE T= "Xw:     39.8300      Yw:     28.4100      Rw:    0.100000      Zwbot:     16.5000      Zwtop:     17.0000       Specie:  1 "
 0.40000000000000       0.0000000000000    
 0.80000000000000       0.0000000000000    
  1.2000000000000       0.0000000000000    
  1.6000000000000       0.0000000000000    
  2.0000000000000       0.0000000000000    
  2.4000000000000       0.0000000000000    
  2.8000000000000       0.0000000000000    
  3.2000000000000       0.0000000000000    
  3.6000000000000       7.5942234639272    
  4.0000000000000       5.0628156426181    
  4.4000000000000       0.0000000000000    
  4.8000000000000       2.5314078213091    
  5.2000000000000       0.0000000000000    
  5.6000000000000       2.5171712256063    
  6.0000000000000       0.0000000000000    
  6.4000000000000       12.462013806518    
  6.8000000000000       7.4558806746418    
  7.2000000000000       14.954426662210    
  7.6000000000000       7.5935846302753    
  8.0000000000000       7.4750525354711    
  8.4000000000000       9.9168980414130    
  8.8000000000000       9.9453836431248    
  9.2000000000000       4.9695318882263    
  9.6000000000000       5.0171893507674    
  10.000000000000       2.4834593841860    
  10.400000000000       9.9113575703263    
  10.800000000000       4.9447530333324    
  11.200000000000       2.4612936491464    
  11.600000000000       7.5149672846391    
  12.000000000000       2.4959362317021    
  12.400000000000       7.5071955210986    
  12.800000000000       14.933861432832    
  13.200000000000       20.149623422824    
  13.600000000000       17.652091804008    
  14.000000000000       20.145673833775    
  14.400000000000       15.103932031092    
  14.800000000000       9.9350619799115    
  15.200000000000       12.595394411513    
  15.600000000000       17.694136720093    
  16.000000000000       17.658797220977    
  16.400000000000       7.4679475716686    
  16.800000000000       9.9905311438047    
  17.200000000000       7.5353163846604    
  17.600000000000       17.650618973378    
  18.000000000000       12.593706390187    
  18.400000000000       27.594849611348    
  18.800000000000       14.989193655084    
  19.200000000000       7.4494951534957    
  19.600000000000       7.5067719578363    
  20.000000000000       0.0000000000000    
ZONE T= "Xw:     39.9300      Yw:     28.4100      Rw:    0.100000      Zwbot:     13.5000      Zwtop:     14.0000       Specie:  1 "
 0.40000000000000       0.0000000000000    
 0.80000000000000       0.0000000000000    
  1.2000000000000       0.0000000000000    
  1.6000000000000       0.0000000000000    
  2.0000000000000       0.0000000000000    
  2.4000000000000       0.0000000000000    
  2.8000000000000       0.0000000000000    
  3.2000000000000       0.0000000000000    
  3.6000000000000       0.0000000000000    
  4.0000000000000       0.0000000000000    
  4.4000000000000       0.0000000000000    
  4.8000000000000       0.0000000000000    
  5.2000000000000       0.0000000000000    
  5.6000000000000       0.0000000000000    
  6.0000000000000       0.0000000000000    
  6.4000000000000       0.0000000000000    
  6.8000000000000       0.0000000000000    
  7.2000000000000       0.0000000000000    
  7.6000000000000       0.0000000000000    
  8.0000000000000       0.0000000000000    
  8.4000000000000       0.0000000000000    
  8.8000000000000       0.0000000000000    
  9.2000000000000       0.0000000000000    
  9.6000000000000       0.0000000000000    
  10.000000000000       0.0000000000000    
  10.400000000000       5.0343424512127    
  10.800000000000       0.0000000000000    
  11.200000000000       2.5097674418605    
  11.600000000000       0.0000000000000    
  12.000000000000       0.0000000000000    
  12.400000000000       0.0000000000000    
  12.800000000000       0.0000000000000    
  13.200000000000       0.0000000000000    
  13.600000000000       5.0269386674668    
  14.000000000000       0.0000000000000    
  14.400000000000       0.0000000000000    
  14.800000000000       0.0000000000000    
  15.200000000000       0.0000000000000    
  15.600000000000       0.0000000000000    
  16.000000000000       0.0000000000000    
  16.400000000000       7.4057733552344    
  16.800000000000       2.4685911184115    
  17.200000000000       0.0000000000000    
  17.600000000000       2.4685911184115    
  18.000000000000       2.4685911184115    
  18.400000000000       0.0000000000000    
  18.800000000000       0.0000000000000    
  19.200000000000       0.0000000000000    
  19.600000000000       2.5343683758006    
  20.000000000000       0.0000000000000    
ZONE T= "Xw:     39.8300      Yw:     28.4100      Rw:    0.100000      Zwbot:     10.6000      Zwtop:     11.2000       Specie:  1 "
 0.40000000000000       2.5067298904367    
 0.80000000000000       0.0000000000000    
  1.2000000000000       2.4944671837917    
  1.6000000000000       15.023621026919    
  2.0000000000000       19.935633701383    
  2.4000000000000       20.002945898944    
  2.8000000000000       14.987148005406    
  3.2000000000000       32.513408965904    
  3.6000000000000       17.540134293780    
  4.0000000000000       9.9485075647892    
  4.4000000000000       32.464023052494    
  4.8000000000000       29.964258129019    
  5.2000000000000       19.927569461995    
  5.6000000000000       24.840476308571    
  6.0000000000000       24.911983642995    
  6.4000000000000       14.997329265695    
  6.8000000000000       4.9958104869005    
  7.2000000000000       24.866177677775    
  7.6000000000000       9.9032949609773    
  8.0000000000000       17.313280098779    
  8.4000000000000       9.9594658055732    
  8.8000000000000       9.9764422314932    
  9.2000000000000       14.965968598979    
  9.6000000000000       12.399232706726    
  10.000000000000       22.511111950255    
  10.400000000000       12.476516495671    
  10.800000000000       15.079379928456    
  11.200000000000       4.9596645194114    
  11.600000000000       12.455237496406    
  12.000000000000       30.026867062717    
  12.400000000000       12.500307010605    
  12.800000000000       40.121118907174    
  13.200000000000       24.812273207282    
  13.600000000000       24.906574506827    
  14.000000000000       17.490582407192    
  14.400000000000       12.501515681120    
  14.800000000000       19.953783236299    
  15.200000000000       29.844110881099    
  15.600000000000       15.065217929370    
  16.000000000000       20.160245752750    
  16.400000000000       27.488356518995    
  16.800000000000       14.986949245058    
  17.200000000000       17.547532031865    
  17.600000000000       12.521070206792    
  18.000000000000       17.475744156664    
  18.400000000000       9.9735932490101    
  18.800000000000       7.5215080506947    
  19.200000000000       9.9683068874823    
  19.600000000000       2.5318285567275    
  20.000000000000       5.0244482655640    
ZONE T= "Xw:     39.8300      Yw:     28.4100      Rw:    0.100000      Zwbot:     7.60000      Zwtop:     8.30000       Specie:  1 "
 0.40000000000000       0.0000000000000    
 0.80000000000000       0.0000000000000    
  1.2000000000000       0.0000000000000    
  1.6000000000000       0.0000000000000    
  2.0000000000000       4.9391955664862    
  2.4000000000000       2.4695977832431    
  2.8000000000000       2.4695977832431    
  3.2000000000000       0.0000000000000    
  3.6000000000000       0.0000000000000    
  4.0000000000000       7.5240446354590    
  4.4000000000000       5.0189794283513    
  4.8000000000000       10.002069919775    
  5.2000000000000       12.442900132756    
  5.6000000000000       7.5149022687255    
  6.0000000000000       32.478857119272    
  6.4000000000000       34.904153542625    
  6.8000000000000       20.166360693972    
  7.2000000000000       55.020349813483    
  7.6000000000000       47.471132793348    
  8.0000000000000       24.873694022915    
  8.4000000000000       22.460770692933    
  8.8000000000000       32.233807849055    
  9.2000000000000       52.456886694606    
  9.6000000000000       34.946420727779    
  10.000000000000       50.189785774701    
  10.400000000000       37.838566105346    
  10.800000000000       52.963649461169    
  11.200000000000       47.630336200910    
  11.600000000000       42.631976342729    
  12.000000000000       49.940193835759    
  12.400000000000       37.650498959291    
  12.800000000000       44.936533704661    
  13.200000000000       14.909567303051    
  13.600000000000       52.353372490789    
  14.000000000000       32.419791899790    
  14.400000000000       32.507915871774    
  14.800000000000       42.617414750126    
  15.200000000000       37.499505556239    
  15.600000000000       37.538172634305    
  16.000000000000       39.895728387203    
  16.400000000000       54.890531833323    
  16.800000000000       30.111348974165    
  17.200000000000       34.864891564798    
  17.600000000000       32.497448703092    
  18.000000000000       22.554493598363    
  18.400000000000       37.340498799537    
  18.800000000000       27.371717550537    
  19.200000000000       32.301708121220    
  19.600000000000       25.051239215226    
  20.000000000000       20.006062864233    
ZONE T= "Xw:     39.8300      Yw:     28.5100      Rw:    0.100000      Zwbot:     4.50000      Zwtop:     5.00000       Specie:  1 "
 0.40000000000000       2.4774129737153    
 0.80000000000000       7.5201896713100    
  1.2000000000000       2.5067298904367    
  1.6000000000000       10.002336937691    
  2.0000000000000       4.9642945327625    
  2.4000000000000       2.5067298904367    
  2.8000000000000       4.9872124734889    
  3.2000000000000       27.393487816184    
  3.6000000000000       32.496079869753    
  4.0000000000000       25.029242618290    
  4.4000000000000       35.052699810664    
  4.8000000000000       12.566606424877    
  5.2000000000000       35.190698819821    
  5.6000000000000       40.060004550906    
  6.0000000000000       22.580976269794    
  6.4000000000000       25.156972308639    
  6.8000000000000       45.147123405689    
  7.2000000000000       45.299492703275    
  7.6000000000000       47.644323225427    
  8.0000000000000       44.867114497727    
  8.4000000000000       40.115893081165    
  8.8000000000000       34.957818912897    
  9.2000000000000       34.869556078717    
  9.6000000000000       29.945245637359    
  10.000000000000       27.533030670925    
  10.400000000000       19.950329506387    
  10.800000000000       25.105215110742    
  11.200000000000       15.054659406620    
  11.600000000000       12.503339981988    
  12.000000000000       2.4940170252471    
  12.400000000000       7.4654302595973    
  12.800000000000       20.031572629586    
  13.200000000000       12.564914349565    
  13.600000000000       22.356162081970    
  14.000000000000       12.358632834753    
  14.400000000000       7.5014065625383    
  14.800000000000       14.948171126911    
  15.200000000000       4.9633051801870    
  15.600000000000       0.0000000000000    
  16.000000000000       2.4907847868434    
  16.400000000000       2.4710095378920    
  16.800000000000       2.4710095378920    
  17.200000000000       0.0000000000000    
  17.600000000000       0.0000000000000    
  18.000000000000       0.0000000000000    
  18.400000000000       0.0000000000000    
  18.800000000000       0.0000000000000    
  19.200000000000       0.0000000000000    
  19.600000000000       0.0000000000000    
  20.000000000000       0.0000000000000    
ZONE T= "Xw:     39.5300      Yw:     34.0100      Rw:    0.100000      Zwbot:     16.7000      Zwtop:     17.3000       Specie:  1 "
 0.40000000000000       0.0000000000000    
 0.80000000000000       2.5088674447329    
  1.2000000000000       5.0091385832572    
  1.6000000000000       2.5088674447329    
  2.0000000000000       0.0000000000000    
  2.4000000000000       12.516236575313    
  2.8000000000000       4.9672828499600    
  3.2000000000000       7.4667834119090    
  3.6000000000000       0.0000000000000    
  4.0000000000000       7.5604920921372    
  4.4000000000000       4.9521812627280    
  4.8000000000000       14.934902005385    
  5.2000000000000       9.9859851116579    
  5.6000000000000       9.9780488572262    
  6.0000000000000       29.900201815922    
  6.4000000000000       24.994813061549    
  6.8000000000000       32.499992661988    
  7.2000000000000       9.9856872390784    
  7.6000000000000       9.9688532992017    
  8.0000000000000       7.5130998947644    
  8.4000000000000       12.560555802486    
  8.8000000000000       19.999367116665    
  9.2000000000000       12.540871944176    
  9.6000000000000       10.038070313790    
  10.000000000000       10.045256959096    
  10.400000000000       25.108754197500    
  10.800000000000       30.115348947407    
  11.200000000000       15.071996788611    
  11.600000000000       25.151717869285    
  12.000000000000       27.517389065123    
  12.400000000000       25.090502725738    
  12.800000000000       30.145221357931    
  13.200000000000       30.116731150515    
  13.600000000000       27.632885293803    
  14.000000000000       25.122406919383    
  14.400000000000       10.101158434923    
  14.800000000000       10.087445557711    
  15.200000000000       20.082526823311    
  15.600000000000       22.451830879395    
  16.000000000000       10.019015303752    
  16.400000000000       27.393698611458    
  16.800000000000       34.977940641432    
  17.200000000000       14.941421738554    
  17.600000000000       25.030266397049    
  18.000000000000       12.512033706743    
  18.400000000000       2.5039876704532    
  18.800000000000       5.0640079180414    
  19.200000000000       12.461122526865    
  19.600000000000       0.0000000000000    
  20.000000000000       0.0000000000000    
ZONE T= "Xw:     39.5300      Yw:     34.1100      Rw:    0.100000      Zwbot:     13.5000      Zwtop:     14.0000       Specie:  1 "
 0.40000000000000       0.0000000000000    
 0.80000000000000       0.0000000000000    
  1.2000000000000       0.0000000000000    
  1.6000000000000       0.0000000000000    
  2.0000000000000       0.0000000000000    
  2.4000000000000       0.0000000000000    
  2.8000000000000       0.0000000000000    
  3.2000000000000       0.0000000000000    
  3.6000000000000       0.0000000000000    
  4.0000000000000       0.0000000000000    
  4.4000000000000       0.0000000000000    
  4.8000000000000       0.0000000000000    
  5.2000000000000       2.4851825542502    
  5.6000000000000       0.0000000000000    
  6.0000000000000       2.4912742082505    
  6.4000000000000       2.4841596820600    
  6.8000000000000       2.4841596820600    
  7.2000000000000       4.9816106887319    
  7.6000000000000       29.959381149960    
  8.0000000000000       7.5378908888416    
  8.4000000000000       7.5059195127109    
  8.8000000000000       15.016067297244    
  9.2000000000000       27.408331031694    
  9.6000000000000       9.9289338472636    
  10.000000000000       7.4584031912911    
  10.400000000000       12.556228707103    
  10.800000000000       17.511686283641    
  11.200000000000       5.0112181450140    
  11.600000000000       17.488217577980    
  12.000000000000       7.5163856457218    
  12.400000000000       24.952463085610    
  12.800000000000       27.524268976740    
  13.200000000000       27.550658736349    
  13.600000000000       22.549147162676    
  14.000000000000       52.505943107213    
  14.400000000000       67.586561886067    
  14.800000000000       30.056891081619    
  15.200000000000       17.431405026289    
  15.600000000000       30.012633409275    
  16.000000000000       12.453555385832    
  16.400000000000       12.536092992446    
  16.800000000000       12.557140599408    
  17.200000000000       42.567982114321    
  17.600000000000       37.501706189582    
  18.000000000000       14.975173619115    
  18.400000000000       17.529470310485    
  18.800000000000       17.498151092279    
  19.200000000000       22.534767334185    
  19.600000000000       9.9947473278428    
  20.000000000000       15.050964998129    
ZONE T= "Xw:     39.4300      Yw:     34.0100      Rw:    0.100000      Zwbot:     10.5000      Zwtop:     11.1000       Specie:  1 "
 0.40000000000000       59.871977828741    
 0.80000000000000       17.525152281330    
  1.2000000000000       14.993063610656    
  1.6000000000000       4.9406852589287    
  2.0000000000000       14.900742003359    
  2.4000000000000       22.461633557429    
  2.8000000000000       24.834240628299    
  3.2000000000000       24.768346901994    
  3.6000000000000       27.226436353977    
  4.0000000000000       22.352078984610    
  4.4000000000000       27.401987222309    
  4.8000000000000       22.470459869632    
  5.2000000000000       24.993151472836    
  5.6000000000000       39.863492810462    
  6.0000000000000       17.508151278117    
  6.4000000000000       34.968838259232    
  6.8000000000000       25.014868465842    
  7.2000000000000       52.567859661814    
  7.6000000000000       34.796792403331    
  8.0000000000000       19.982120509891    
  8.4000000000000       32.554122732427    
  8.8000000000000       25.061560800381    
  9.2000000000000       15.043336113793    
  9.6000000000000       22.493150873556    
  10.000000000000       27.522342441246    