 TITLE="TECPLOT input file: Breakthrough Curves" 
 VARIABLES="Time" "Concentrations" 
ZONE T= "Xw:     39.9300      Yw:     22.4100      Rw:    0.100000      Zwbot:     16.5000      Zwtop:     17.0000       Specie:  1 "
  0.0000000000000       0.0000000000000    
  0.0000000000000       0.0000000000000    
  0.0000000000000       0.0000000000000    
  0.0000000000000       0.0000000000000    
  0.0000000000000       0.0000000000000    
  0.0000000000000       0.0000000000000    
  0.0000000000000       0.0000000000000    
  0.0000000000000       0.0000000000000    
  0.0000000000000       0.0000000000000    
  0.0000000000000       0.0000000000000    
  0.0000000000000       0.0000000000000    
  0.0000000000000       0.0000000000000    
  0.0000000000000       0.0000000000000    
  0.0000000000000       0.0000000000000    
  0.0000000000000       0.0000000000000    
  0.0000000000000       0.0000000000000    
  0.0000000000000       0.0000000000000    
  0.0000000000000       0.0000000000000    
  0.0000000000000       0.0000000000000    
  0.0000000000000       0.0000000000000    
  0.0000000000000       0.0000000000000    
  0.0000000000000       0.0000000000000    
  0.0000000000000       0.0000000000000    
  0.0000000000000       0.0000000000000    
  0.0000000000000       0.0000000000000    
  0.0000000000000       0.0000000000000    
  0.0000000000000       0.0000000000000    
  0.0000000000000       0.0000000000000    
  0.0000000000000       0.0000000000000    
  0.0000000000000       0.0000000000000    
  0.0000000000000       0.0000000000000    
  0.0000000000000       0.0000000000000    
  0.0000000000000       0.0000000000000    
  0.0000000000000       0.0000000000000    
  0.0000000000000       0.0000000000000    
  0.0000000000000       0.0000000000000    
  0.0000000000000       0.0000000000000    
  0.0000000000000       0.0000000000000    
  0.0000000000000       0.0000000000000    
  0.0000000000000       0.0000000000000    
  0.0000000000000       0.0000000000000    
  0.0000000000000       0.0000000000000    
  0.0000000000000       0.0000000000000    
  0.0000000000000       0.0000000000000    
  0.0000000000000       0.0000000000000    
  0.0000000000000       0.0000000000000    
  0.0000000000000       0.0000000000000    
  0.0000000000000       0.0000000000000    
  0.0000000000000       0.0000000000000    
  0.0000000000000       0.0000000000000    
ZONE T= "Xw:     39.9300      Yw:     22.4100      Rw:    0.100000      Zwbot:     13.5000      Zwtop:     14.0000       Specie:  1 "
 0.40000000000000       0.0000000000000    
 0.80000000000000       0.0000000000000    
  1.2000000000000       0.0000000000000    
  1.6000000000000       0.0000000000000    
  2.0000000000000       0.0000000000000    
  2.4000000000000       0.0000000000000    
  2.8000000000000       0.0000000000000    
  3.2000000000000       0.0000000000000    
  3.6000000000000       0.0000000000000    
  4.0000000000000       0.0000000000000    
  4.4000000000000       0.0000000000000    
  4.8000000000000       0.0000000000000    
  5.2000000000000       0.0000000000000    
  5.6000000000000       0.0000000000000    
  6.0000000000000       0.0000000000000    
  6.4000000000000       0.0000000000000    
  6.8000000000000       0.0000000000000    
  7.2000000000000       0.0000000000000    
  7.6000000000000       0.0000000000000    
  8.0000000000000       0.0000000000000    
  8.4000000000000       0.0000000000000    
  8.8000000000000       0.0000000000000    
  9.2000000000000       0.0000000000000    
  9.6000000000000       0.0000000000000    
  10.000000000000       0.0000000000000    
  10.400000000000       0.0000000000000    
  10.800000000000       0.0000000000000    
  11.200000000000       0.0000000000000    
  11.600000000000       0.0000000000000    
  12.000000000000       0.0000000000000    
  12.400000000000       0.0000000000000    
  12.800000000000       0.0000000000000    
  13.200000000000       0.0000000000000    
  13.600000000000       0.0000000000000    
  14.000000000000       0.0000000000000    
  14.400000000000       0.0000000000000    
  14.800000000000       0.0000000000000    
  15.200000000000       0.0000000000000    
  15.600000000000       2.4845922629546    
  16.000000000000       4.9691845259093    
  16.400000000000       0.0000000000000    
  16.800000000000       5.0337695406146    
  17.200000000000       7.5506543109219    
  17.600000000000       17.458332414919    
  18.000000000000       4.9819720462613    
  18.400000000000       5.0108987913753    
  18.800000000000       5.0347613160447    
  19.200000000000       0.0000000000000    
  19.600000000000       0.0000000000000    
  20.000000000000       2.4817848724146    
ZONE T= "Xw:     39.9300      Yw:     22.3100      Rw:    0.100000      Zwbot:     10.5000      Zwtop:     11.0000       Specie:  1 "
 0.40000000000000       0.0000000000000    
 0.80000000000000       0.0000000000000    
  1.2000000000000       0.0000000000000    
  1.6000000000000       0.0000000000000    
  2.0000000000000       0.0000000000000    
  2.4000000000000       0.0000000000000    
  2.8000000000000       0.0000000000000    
  3.2000000000000       0.0000000000000    
  3.6000000000000       4.9741993013160    
  4.0000000000000       2.4738762062892    
  4.4000000000000       2.4738762062892    
  4.8000000000000       7.5718232976547    
  5.2000000000000       0.0000000000000    
  5.6000000000000       7.4716935117966    
  6.0000000000000       2.5128284306252    
  6.4000000000000       4.9642172124680    
  6.8000000000000       2.4745225166361    
  7.2000000000000       7.5131247980260    
  7.6000000000000       12.486043358667    
  8.0000000000000       22.520738536802    
  8.4000000000000       22.507184366956    
  8.8000000000000       37.329013710066    
  9.2000000000000       29.933119099897    
  9.6000000000000       39.884249256935    
  10.000000000000       32.497400879694    
  10.400000000000       25.012499452156    
  10.800000000000       32.400774257814    
  11.200000000000       32.592675226129    
  11.600000000000       45.006089423027    
  12.000000000000       35.011517059874    
  12.400000000000       40.099542631586    
  12.800000000000       25.102863009497    
  13.200000000000       7.4955132801631    
  13.600000000000       15.064028056794    
  14.000000000000       12.539440549505    
  14.400000000000       37.469383437993    
  14.800000000000       25.049140398843    
  15.200000000000       29.925780531062    
  15.600000000000       7.4729811917908    
  16.000000000000       2.5026796577126    
  16.400000000000       10.004783203249    
  16.800000000000       12.404768399677    
  17.200000000000       4.9753043834442    
  17.600000000000       7.4415601530399    
  18.000000000000       7.5848592446290    
  18.400000000000       9.9698465679162    
  18.800000000000       0.0000000000000    
  19.200000000000       0.0000000000000    
  19.600000000000       0.0000000000000    
  20.000000000000       0.0000000000000    
ZONE T= "Xw:     40.0300      Yw:     22.4100      Rw:    0.100000      Zwbot:     7.60000      Zwtop:     8.10000       Specie:  1 "
 0.40000000000000       0.0000000000000    
 0.80000000000000       0.0000000000000    
  1.2000000000000       0.0000000000000    
  1.6000000000000       0.0000000000000    
  2.0000000000000       0.0000000000000    
  2.4000000000000       0.0000000000000    
  2.8000000000000       0.0000000000000    
  3.2000000000000       0.0000000000000    
  3.6000000000000       0.0000000000000    
  4.0000000000000       2.5115235766197    
  4.4000000000000       0.0000000000000    
  4.8000000000000       0.0000000000000    
  5.2000000000000       10.034020580138    
  5.6000000000000       17.596162494023    
  6.0000000000000       15.029988120419    
  6.4000000000000       29.937614514112    
  6.8000000000000       4.9711117789007    
  7.2000000000000       24.957312053733    
  7.6000000000000       29.957308638460    
  8.0000000000000       39.936864158856    
  8.4000000000000       32.521267986844    
  8.8000000000000       42.409543427847    
  9.2000000000000       34.867129478267    
  9.6000000000000       22.595425503160    
  10.000000000000       45.040065562162    
  10.400000000000       37.553790841111    
  10.800000000000       52.492277439521    
  11.200000000000       27.532027352751    
  11.600000000000       34.910509041828    
  12.000000000000       22.498190525557    
  12.400000000000       35.029484181829    
  12.800000000000       30.126755153328    
  13.200000000000       24.956516174983    
  13.600000000000       39.900662980989    
  14.000000000000       19.912357706593    
  14.400000000000       25.096293983028    
  14.800000000000       40.050794693190    
  15.200000000000       37.444991958971    
  15.600000000000       32.571270644125    
  16.000000000000       20.033264010335    
  16.400000000000       5.0139050271413    
  16.800000000000       12.516812570304    
  17.200000000000       2.5149865321889    
  17.600000000000       12.490569620506    
  18.000000000000       10.005304042426    
  18.400000000000       12.470875323361    
  18.800000000000       10.020516426719    
  19.200000000000       7.4776000620884    
  19.600000000000       2.4870996506580    
  20.000000000000       2.4908503514016    
ZONE T= "Xw:     39.9300      Yw:     22.4100      Rw:    0.100000      Zwbot:     4.50000      Zwtop:     5.00000       Specie:  1 "
 0.40000000000000       0.0000000000000    
 0.80000000000000       0.0000000000000    
  1.2000000000000       0.0000000000000    
  1.6000000000000       0.0000000000000    
  2.0000000000000       0.0000000000000    
  2.4000000000000       0.0000000000000    
  2.8000000000000       0.0000000000000    
  3.2000000000000       2.5070758609247    
  3.6000000000000       15.081952618165    
  4.0000000000000       7.5212275827740    
  4.4000000000000       0.0000000000000    
  4.8000000000000       2.5070758609247    
  5.2000000000000       17.546515482195    
  5.6000000000000       17.422350782431    
  6.0000000000000       22.575445651278    
  6.4000000000000       7.5531818976937    
  6.8000000000000       30.081919325160    
  7.2000000000000       10.039668208727    
  7.6000000000000       14.917005294326    
  8.0000000000000       32.450993681267    
  8.4000000000000       42.388653535100    
  8.8000000000000       15.007809327916    
  9.2000000000000       24.992114085801    
  9.6000000000000       32.423407746127    
  10.000000000000       22.508845972828    
  10.400000000000       50.062110700686    
  10.800000000000       37.685313906098    
  11.200000000000       27.537372232676    
  11.600000000000       30.006006227811    
  12.000000000000       40.035714801104    
  12.400000000000       27.576518493802    
  12.800000000000       15.056202978729    
  13.200000000000       17.589254015365    
  13.600000000000       17.563862398556    
  14.000000000000       15.005201581537    
  14.400000000000       15.080010097268    
  14.800000000000       10.050800605095    
  15.200000000000       10.079387096224    
  15.600000000000       5.0244741654438    
  16.000000000000       0.0000000000000    
  16.400000000000       0.0000000000000    
  16.800000000000       2.4924978838786    
  17.200000000000       7.4774936516358    
  17.600000000000       2.4922854601991    
  18.000000000000       0.0000000000000    
  18.400000000000       2.4922854601991    
  18.800000000000       2.4785280545444    
  19.200000000000       2.4785280545444    
  19.600000000000       0.0000000000000    
  20.000000000000       0.0000000000000    
ZONE T= "Xw:     39.8300      Yw:     28.4100      Rw:    0.100000      Zwbot:     16.5000      Zwtop:     17.0000       Specie:  1 "
 0.40000000000000       0.0000000000000    
 0.80000000000000       0.0000000000000    
  1.2000000000000       0.0000000000000    
  1.6000000000000       0.0000000000000    
  2.0000000000000       0.0000000000000    
  2.4000000000000       2.4955370078156    
  2.8000000000000       4.9910740156312    
  3.2000000000000       14.986099440110    
  3.6000000000000       2.4981124864590    
  4.0000000000000       0.0000000000000    
  4.4000000000000       2.4981124864590    
  4.8000000000000       0.0000000000000    
  5.2000000000000       4.9962249729179    
  5.6000000000000       0.0000000000000    
  6.0000000000000       0.0000000000000    
  6.4000000000000       0.0000000000000    
  6.8000000000000       0.0000000000000    
  7.2000000000000       0.0000000000000    
  7.6000000000000       12.425971922509    
  8.0000000000000       17.477933476219    
  8.4000000000000       10.066028280169    
  8.8000000000000       20.009766451063    
  9.2000000000000       12.521488530635    
  9.6000000000000       29.999937690834    
  10.000000000000       12.507239393606    
  10.400000000000       22.522898591847    
  10.800000000000       4.9787868143357    
  11.200000000000       4.9205535516072    
  11.600000000000       12.508888155184    
  12.000000000000       15.090156258800    
  12.400000000000       15.035867006232    
  12.800000000000       17.490638091549    
  13.200000000000       7.4939205993463    
  13.600000000000       4.9801035828490    
  14.000000000000       12.433388187235    
  14.400000000000       12.414347540046    
  14.800000000000       25.042710684456    
  15.200000000000       17.357324725816    
  15.600000000000       5.0427695504682    
  16.000000000000       9.9433762755870    
  16.400000000000       5.0201962506927    
  16.800000000000       7.5302943760391    
  17.200000000000       9.9752451522340    
  17.600000000000       4.9876225761170    
  18.000000000000       7.5339980126015    
  18.400000000000       9.9559498532207    
  18.800000000000       7.5178262815827    
  19.200000000000       22.364206541148    
  19.600000000000       22.420944056617    
  20.000000000000       5.0002655473502    
ZONE T= "Xw:     39.9300      Yw:     28.4100      Rw:    0.100000      Zwbot:     13.5000      Zwtop:     14.0000       Specie:  1 "
 0.40000000000000       0.0000000000000    
 0.80000000000000       0.0000000000000    
  1.2000000000000       0.0000000000000    
  1.6000000000000       0.0000000000000    
  2.0000000000000       0.0000000000000    
  2.4000000000000       0.0000000000000    
  2.8000000000000       0.0000000000000    
  3.2000000000000       0.0000000000000    
  3.6000000000000       0.0000000000000    
  4.0000000000000       0.0000000000000    
  4.4000000000000       0.0000000000000    
  4.8000000000000       0.0000000000000    
  5.2000000000000       0.0000000000000    
  5.6000000000000       0.0000000000000    
  6.0000000000000       0.0000000000000    
  6.4000000000000       0.0000000000000    
  6.8000000000000       0.0000000000000    
  7.2000000000000       0.0000000000000    
  7.6000000000000       7.4630131757817    
  8.0000000000000       0.0000000000000    
  8.4000000000000       0.0000000000000    
  8.8000000000000       0.0000000000000    
  9.2000000000000       7.4286005298136    
  9.6000000000000       0.0000000000000    
  10.000000000000       0.0000000000000    
  10.400000000000       4.9753421171878    
  10.800000000000       4.9753421171878    
  11.200000000000       4.9753421171878    
  11.600000000000       0.0000000000000    
  12.000000000000       0.0000000000000    
  12.400000000000       0.0000000000000    
  12.800000000000       2.4762001766045    
  13.200000000000       0.0000000000000    
  13.600000000000       0.0000000000000    
  14.000000000000       0.0000000000000    
  14.400000000000       0.0000000000000    
  14.800000000000       15.046180191279    
  15.200000000000       2.5223542198836    
  15.600000000000       2.4876710585939    
  16.000000000000       0.0000000000000    
  16.400000000000       2.5380414518964    
  16.800000000000       2.4905602088843    
  17.200000000000       2.4905602088843    
  17.600000000000       4.9785296212281    
  18.000000000000       4.9819167679783    
  18.400000000000       4.9815185928734    
  18.800000000000       2.4905602088843    
  19.200000000000       9.9592518638917    
  19.600000000000       7.5117078928377    
  20.000000000000       4.9751424744779    
ZONE T= "Xw:     39.8300      Yw:     28.4100      Rw:    0.100000      Zwbot:     10.6000      Zwtop:     11.2000       Specie:  1 "
 0.40000000000000       0.0000000000000    
 0.80000000000000       0.0000000000000    
  1.2000000000000       2.4970922866760    
  1.6000000000000       9.9883691467039    
  2.0000000000000       7.4626330380292    
  2.4000000000000       14.913121064203    
  2.8000000000000       19.957762830404    
  3.2000000000000       10.036025873122    
  3.6000000000000       27.475808425638    
  4.0000000000000       14.961936128555    
  4.4000000000000       9.8934982876822    
  4.8000000000000       12.442334886126    
  5.2000000000000       14.900389623600    
  5.6000000000000       17.463818118147    
  6.0000000000000       15.115366281025    
  6.4000000000000       12.482113863186    
  6.8000000000000       32.528920893607    
  7.2000000000000       22.503644034963    
  7.6000000000000       32.427755018832    
  8.0000000000000       20.034507613578    
  8.4000000000000       30.128027873616    
  8.8000000000000       40.246486658054    
  9.2000000000000       52.602326966370    
  9.6000000000000       42.552524672433    
  10.000000000000       52.703295913443    
  10.400000000000       40.082612246525    
  10.800000000000       55.204200581504    
  11.200000000000       42.630527437638    
  11.600000000000       30.174695757848    
  12.000000000000       57.665541450869    
  12.400000000000       34.990416015777    
  12.800000000000       29.939961147284    
  13.200000000000       22.443295246466    
  13.600000000000       15.069876559627    
  14.000000000000       32.483165480757    
  14.400000000000       30.063428319127    
  14.800000000000       25.207106191368    
  15.200000000000       30.133718864529    
  15.600000000000       17.621240004945    
  16.000000000000       9.9819936569430    
  16.400000000000       20.016868471665    
  16.800000000000       0.0000000000000    
  17.200000000000       0.0000000000000    
  17.600000000000       2.5104718918542    
  18.000000000000       7.5595736700280    
  18.400000000000       0.0000000000000    
  18.800000000000       5.0351429957972    
  19.200000000000       2.5175714978986    
  19.600000000000       2.5119552149522    
  20.000000000000       0.0000000000000    
ZONE T= "Xw:     39.8300      Yw:     28.4100      Rw:    0.100000      Zwbot:     7.60000      Zwtop:     8.30000       Specie:  1 "
 0.40000000000000       2.4981865364926    
 0.80000000000000       0.0000000000000    
  1.2000000000000       0.0000000000000    
  1.6000000000000       0.0000000000000    
  2.0000000000000       5.0211109758870    
  2.4000000000000       0.0000000000000    
  2.8000000000000       7.5124341137775    
  3.2000000000000       17.446461062295    
  3.6000000000000       9.9623661072064    
  4.0000000000000       9.9058265583228    
  4.4000000000000       17.382486265401    
  4.8000000000000       22.368651990864    
  5.2000000000000       17.373929886348    
  5.6000000000000       17.425048057471    
  6.0000000000000       19.911817756335    
  6.4000000000000       7.4558205713743    
  6.8000000000000       5.0406780346825    
  7.2000000000000       15.115746748262    
  7.6000000000000       27.692514817228    
  8.0000000000000       20.048593140916    
  8.4000000000000       22.502527500186    
  8.8000000000000       42.667277314621    
  9.2000000000000       42.385931279588    
  9.6000000000000       44.778896882660    
  10.000000000000       42.498062414561    
  10.400000000000       34.947595545219    
  10.800000000000       42.633008162783    
  11.200000000000       32.605909576661    
  11.600000000000       35.125362638142    
  12.000000000000       35.147370821098    
  12.400000000000       42.625898689202    
  12.800000000000       47.708344339546    
  13.200000000000       42.818667527429    
  13.600000000000       35.233551523111    
  14.000000000000       42.565679158120    
  14.400000000000       25.047742350314    
  14.800000000000       29.970808476902    
  15.200000000000       30.096170613208    
  15.600000000000       12.628206652226    
  16.000000000000       12.528707122111    
  16.400000000000       32.585924391498    
  16.800000000000       37.505314750629    
  17.200000000000       7.5017942541481    
  17.600000000000       47.186112038701    
  18.000000000000       24.856373849692    
  18.400000000000       17.415646546659    
  18.800000000000       12.527480642019    
  19.200000000000       15.026713576687    
  19.600000000000       19.979454850643    
  20.000000000000       17.487052070191    
ZONE T= "Xw:     39.8300      Yw:     28.5100      Rw:    0.100000      Zwbot:     4.50000      Zwtop:     5.00000       Specie:  1 "
 0.40000000000000       14.985175982400    
 0.80000000000000       2.4921022606043    
  1.2000000000000       14.947313373494    
  1.6000000000000       7.4469621415891    
  2.0000000000000       2.4825514324960    
  2.4000000000000       2.5388062932870    
  2.8000000000000       4.9668399024909    
  3.2000000000000       20.011613082281    
  3.6000000000000       27.506269603874    
  4.0000000000000       42.733214051687    
  4.4000000000000       32.568852879440    
  4.8000000000000       35.123592445555    
  5.2000000000000       37.629388287525    
  5.6000000000000       37.681011913045    
  6.0000000000000       35.012566769409    
  6.4000000000000       37.491191826950    
  6.8000000000000       30.143949682591    
  7.2000000000000       42.617245968883    
  7.6000000000000       52.219358835914    
  8.0000000000000       65.094949080995    
  8.4000000000000       47.579237212473    
  8.8000000000000       44.735234317975    
  9.2000000000000       17.375838086661    
  9.6000000000000       17.479042423512    
  10.000000000000       30.008757550283    
  10.400000000000       7.5139847233902    
  10.800000000000       25.102756467098    
  11.200000000000       2.5442662304252    
  11.600000000000       5.0432281212212    
  12.000000000000       2.5442662304252    
  12.400000000000       5.0885324608505    
  12.800000000000       7.5760768068602    
  13.200000000000       0.0000000000000    
  13.600000000000       17.627478707741    
  14.000000000000       9.9754200874201    
  14.400000000000       15.164164976080    
  14.800000000000       0.0000000000000    
  15.200000000000       10.133093482519    
  15.600000000000       5.0362541063984    
  16.000000000000       2.4780715479615    
  16.400000000000       0.0000000000000    
  16.800000000000       7.5564686118957    
  17.200000000000       4.9561430959229    
  17.600000000000       0.0000000000000    
  18.000000000000       0.0000000000000    
  18.400000000000       0.0000000000000    
  18.800000000000       0.0000000000000    
  19.200000000000       0.0000000000000    
  19.600000000000       0.0000000000000    
  20.000000000000       0.0000000000000    
ZONE T= "Xw:     39.5300      Yw:     34.0100      Rw:    0.100000      Zwbot:     16.7000      Zwtop:     17.3000       Specie:  1 "
 0.40000000000000       10.123681201833    
 0.80000000000000       7.5927609013747    
  1.2000000000000       0.0000000000000    
  1.6000000000000       0.0000000000000    
  2.0000000000000       2.5342554973650    
  2.4000000000000       2.5342554973650    
  2.8000000000000       4.9746796901603    
  3.2000000000000       4.9810873715940    
  3.6000000000000       7.4750532104383    
  4.0000000000000       7.5064001599704    
  4.4000000000000       15.048660516503    
  4.8000000000000       5.0422283555187    
  5.2000000000000       10.023962777726    
  5.6000000000000       17.508939256641    
  6.0000000000000       7.4878638012319    
  6.4000000000000       15.111893358472    
  6.8000000000000       14.981685806899    
  7.2000000000000       27.397981405968    
  7.6000000000000       32.611879681511    
  8.0000000000000       37.631902151868    
  8.4000000000000       29.998345968462    
  8.8000000000000       25.026394663138    
  9.2000000000000       14.996201302246    
  9.6000000000000       14.970198790210    
  10.000000000000       12.459926890614    
  10.400000000000       17.469763381644    
  10.800000000000       24.975319809698    
  11.200000000000       22.443767543922    
  11.600000000000       17.483972978638    
  12.000000000000       30.018309264402    
  12.400000000000       22.476899923151    
  12.800000000000       15.003198687287    
  13.200000000000       7.5845080440011    
  13.600000000000       22.497682492993    
  14.000000000000       22.403694444465    
  14.400000000000       12.492686955789    
  14.800000000000       20.019483542243    
  15.200000000000       12.422104415625    
  15.600000000000       4.9896291936726    
  16.000000000000       2.4958136749026    
  16.400000000000       39.963397268420    
  16.800000000000       32.394297687598    
  17.200000000000       19.981390009573    
  17.600000000000       24.989358621116    
  18.000000000000       35.019771532770    
  18.400000000000       15.021722197104    
  18.800000000000       22.518507795960    
  19.200000000000       12.506450216812    
  19.600000000000       14.968120375504    
  20.000000000000       0.0000000000000    
ZONE T= "Xw:     39.5300      Yw:     34.1100      Rw:    0.100000      Zwbot:     13.5000      Zwtop:     14.0000       Specie:  1 "
 0.40000000000000       0.0000000000000    
 0.80000000000000       0.0000000000000    
  1.2000000000000       0.0000000000000    
  1.6000000000000       0.0000000000000    
  2.0000000000000       0.0000000000000    
  2.4000000000000       0.0000000000000    
  2.8000000000000       0.0000000000000    
  3.2000000000000       4.9779534277191    
  3.6000000000000       4.9997319431452    
  4.0000000000000       0.0000000000000    
  4.4000000000000       0.0000000000000    
  4.8000000000000       10.000067767884    
  5.2000000000000       5.0003358247387    
  5.6000000000000       2.5113591108791    
  6.0000000000000       0.0000000000000    
  6.4000000000000       5.0209478894672    
  6.8000000000000       10.064573886787    
  7.2000000000000       27.509485587109    
  7.6000000000000       15.052967569421    
  8.0000000000000       17.514487178197    
  8.4000000000000       12.539794079655    
  8.8000000000000       14.977988062421    
  9.2000000000000       14.998826019773    
  9.6000000000000       12.430023579708    
  10.000000000000       12.385543712618    
  10.400000000000       4.9591584327507    
  10.800000000000       19.957496049247    
  11.200000000000       27.574092738769    
  11.600000000000       9.9480393432862    
  12.000000000000       9.9355037745148    
  12.400000000000       14.916983814313    
  12.800000000000       17.476656579467    
  13.200000000000       22.407421579502    
  13.600000000000       39.944918254434    
  14.000000000000       24.982991776212    
  14.400000000000       12.406041967680    
  14.800000000000       7.4684563356631    
  15.200000000000       20.035419838457    
  15.600000000000       22.585040908599    
  16.000000000000       25.081749228964    
  16.400000000000       17.578722242224    
  16.800000000000       30.026418172528    
  17.200000000000       25.001125432411    
  17.600000000000       32.620694465148    
  18.000000000000       22.514227432195    
  18.400000000000       30.121187826772    
  18.800000000000       19.965140567683    
  19.200000000000       14.979203895934    
  19.600000000000       30.011556168194    
  20.000000000000       15.065876891258    
ZONE T= "Xw:     39.4300      Yw:     34.0100      Rw:    0.100000      Zwbot:     10.5000      Zwtop:     11.1000       Specie:  1 "
 0.40000000000000       27.321767778208    
 0.80000000000000       22.784852079349    
  1.2000000000000       15.107870112090    
  1.6000000000000       22.551333631419    
  2.0000000000000       10.034379936559    
  2.4000000000000       12.562988213794    
  2.8000000000000       27.531348805532    
  3.2000000000000       15.118193747664    
  3.6000000000000       5.0466360989210    
  4.0000000000000       35.045292842032    
  4.4000000000000       30.042372182043    
  4.8000000000000       30.067110148357    
  5.2000000000000       32.504889974190    
  5.6000000000000       39.995799678493    
  6.0000000000000       22.522952447720    
  6.4000000000000       35.020987697286    
  6.8000000000000       30.028590602066    
  7.2000000000000       30.018729739079    
  7.6000000000000       12.501365321811    
  8.0000000000000       32.479196865924    
  8.4000000000000       25.021988560238    
  8.8000000000000       34.898867586618    
  9.2000000000000       22.425524923776    
  9.6000000000000       32.491223538627    
  10.000000000000       35.079472120990    