 TITLE="TECPLOT input file: Breakthrough Curves" 
 VARIABLES="Time" "Concentrations" 
ZONE T= "Xw:     39.9300      Yw:     22.4100      Rw:    0.100000      Zwbot:     16.5000      Zwtop:     17.0000       Specie:  1 "
  0.0000000000000       0.0000000000000    
  0.0000000000000       0.0000000000000    
  0.0000000000000       0.0000000000000    
  0.0000000000000       0.0000000000000    
  0.0000000000000       0.0000000000000    
  0.0000000000000       0.0000000000000    
  0.0000000000000       0.0000000000000    
  0.0000000000000       0.0000000000000    
  0.0000000000000       0.0000000000000    
  0.0000000000000       0.0000000000000    
  0.0000000000000       0.0000000000000    
  0.0000000000000       0.0000000000000    
  0.0000000000000       0.0000000000000    
  0.0000000000000       0.0000000000000    
  0.0000000000000       0.0000000000000    
  0.0000000000000       0.0000000000000    
  0.0000000000000       0.0000000000000    
  0.0000000000000       0.0000000000000    
  0.0000000000000       0.0000000000000    
  0.0000000000000       0.0000000000000    
  0.0000000000000       0.0000000000000    
  0.0000000000000       0.0000000000000    
  0.0000000000000       0.0000000000000    
  0.0000000000000       0.0000000000000    
  0.0000000000000       0.0000000000000    
  0.0000000000000       0.0000000000000    
  0.0000000000000       0.0000000000000    
  0.0000000000000       0.0000000000000    
  0.0000000000000       0.0000000000000    
  0.0000000000000       0.0000000000000    
  0.0000000000000       0.0000000000000    
  0.0000000000000       0.0000000000000    
  0.0000000000000       0.0000000000000    
  0.0000000000000       0.0000000000000    
  0.0000000000000       0.0000000000000    
  0.0000000000000       0.0000000000000    
  0.0000000000000       0.0000000000000    
  0.0000000000000       0.0000000000000    
  0.0000000000000       0.0000000000000    
  0.0000000000000       0.0000000000000    
  0.0000000000000       0.0000000000000    
  0.0000000000000       0.0000000000000    
  0.0000000000000       0.0000000000000    
  0.0000000000000       0.0000000000000    
  0.0000000000000       0.0000000000000    
  0.0000000000000       0.0000000000000    
  0.0000000000000       0.0000000000000    
  0.0000000000000       0.0000000000000    
  0.0000000000000       0.0000000000000    
  0.0000000000000       0.0000000000000    
ZONE T= "Xw:     39.9300      Yw:     22.4100      Rw:    0.100000      Zwbot:     13.5000      Zwtop:     14.0000       Specie:  1 "
 0.40000000000000       0.0000000000000    
 0.80000000000000       0.0000000000000    
  1.2000000000000       0.0000000000000    
  1.6000000000000       0.0000000000000    
  2.0000000000000       0.0000000000000    
  2.4000000000000       0.0000000000000    
  2.8000000000000       0.0000000000000    
  3.2000000000000       0.0000000000000    
  3.6000000000000       0.0000000000000    
  4.0000000000000       0.0000000000000    
  4.4000000000000       0.0000000000000    
  4.8000000000000       0.0000000000000    
  5.2000000000000       0.0000000000000    
  5.6000000000000       0.0000000000000    
  6.0000000000000       0.0000000000000    
  6.4000000000000       0.0000000000000    
  6.8000000000000       0.0000000000000    
  7.2000000000000       0.0000000000000    
  7.6000000000000       0.0000000000000    
  8.0000000000000       0.0000000000000    
  8.4000000000000       0.0000000000000    
  8.8000000000000       0.0000000000000    
  9.2000000000000       0.0000000000000    
  9.6000000000000       0.0000000000000    
  10.000000000000       0.0000000000000    
  10.400000000000       0.0000000000000    
  10.800000000000       0.0000000000000    
  11.200000000000       0.0000000000000    
  11.600000000000       0.0000000000000    
  12.000000000000       0.0000000000000    
  12.400000000000       0.0000000000000    
  12.800000000000       0.0000000000000    
  13.200000000000       0.0000000000000    
  13.600000000000       0.0000000000000    
  14.000000000000       0.0000000000000    
  14.400000000000       2.4948050514732    
  14.800000000000       0.0000000000000    
  15.200000000000       9.9792202058929    
  15.600000000000       0.0000000000000    
  16.000000000000       14.947851541526    
  16.400000000000       4.9896101029465    
  16.800000000000       9.9792202058929    
  17.200000000000       0.0000000000000    
  17.600000000000       10.005826797798    
  18.000000000000       5.0162166948517    
  18.400000000000       2.4948050514732    
  18.800000000000       4.9980083488536    
  19.200000000000       5.0034534163103    
  19.600000000000       10.006797406454    
  20.000000000000       4.9916208339799    
ZONE T= "Xw:     39.9300      Yw:     22.3100      Rw:    0.100000      Zwbot:     10.5000      Zwtop:     11.0000       Specie:  1 "
 0.40000000000000       0.0000000000000    
 0.80000000000000       0.0000000000000    
  1.2000000000000       0.0000000000000    
  1.6000000000000       0.0000000000000    
  2.0000000000000       0.0000000000000    
  2.4000000000000       0.0000000000000    
  2.8000000000000       0.0000000000000    
  3.2000000000000       0.0000000000000    
  3.6000000000000       0.0000000000000    
  4.0000000000000       10.031547074889    
  4.4000000000000       2.5232151119927    
  4.8000000000000       2.5027773209654    
  5.2000000000000       0.0000000000000    
  5.6000000000000       2.5019392095599    
  6.0000000000000       7.5048777359346    
  6.4000000000000       12.443406276644    
  6.8000000000000       14.997630919510    
  7.2000000000000       20.002938169880    
  7.6000000000000       17.512707539114    
  8.0000000000000       10.043937273626    
  8.4000000000000       10.005744137416    
  8.8000000000000       27.494592301652    
  9.2000000000000       69.979472498590    
  9.6000000000000       47.484769972563    
  10.000000000000       19.966631204050    
  10.400000000000       39.842972454181    
  10.800000000000       52.444235234056    
  11.200000000000       42.439216522165    
  11.600000000000       42.433772965417    
  12.000000000000       44.951540374201    
  12.400000000000       52.478267121070    
  12.800000000000       37.499372294934    
  13.200000000000       14.971061956268    
  13.600000000000       20.024727210035    
  14.000000000000       12.492943570989    
  14.400000000000       22.453901873671    
  14.800000000000       17.413067366589    
  15.200000000000       20.094199305339    
  15.600000000000       22.533127066634    
  16.000000000000       9.9433545698646    
  16.400000000000       7.5003519855929    
  16.800000000000       4.9845571277151    
  17.200000000000       10.053779027086    
  17.600000000000       4.9869228283476    
  18.000000000000       10.001467905971    
  18.400000000000       0.0000000000000    
  18.800000000000       4.9692928419528    
  19.200000000000       4.9692928419528    
  19.600000000000       0.0000000000000    
  20.000000000000       0.0000000000000    
ZONE T= "Xw:     40.0300      Yw:     22.4100      Rw:    0.100000      Zwbot:     7.60000      Zwtop:     8.10000       Specie:  1 "
 0.40000000000000       0.0000000000000    
 0.80000000000000       0.0000000000000    
  1.2000000000000       0.0000000000000    
  1.6000000000000       0.0000000000000    
  2.0000000000000       0.0000000000000    
  2.4000000000000       0.0000000000000    
  2.8000000000000       0.0000000000000    
  3.2000000000000       0.0000000000000    
  3.6000000000000       0.0000000000000    
  4.0000000000000       0.0000000000000    
  4.4000000000000       0.0000000000000    
  4.8000000000000       5.0575654375426    
  5.2000000000000       9.9803628471342    
  5.6000000000000       0.0000000000000    
  6.0000000000000       0.0000000000000    
  6.4000000000000       20.141602477996    
  6.8000000000000       15.077973466761    
  7.2000000000000       25.072659829427    
  7.6000000000000       25.145438621636    
  8.0000000000000       45.086373777507    
  8.4000000000000       45.121377928858    
  8.8000000000000       40.006194734361    
  9.2000000000000       70.270259499370    
  9.6000000000000       47.578282345977    
  10.000000000000       32.607473448373    
  10.400000000000       37.630142617440    
  10.800000000000       32.518519850127    
  11.200000000000       24.999998539430    
  11.600000000000       62.543577136675    
  12.000000000000       42.454690462333    
  12.400000000000       54.921782644063    
  12.800000000000       42.507003929382    
  13.200000000000       37.618405873543    
  13.600000000000       34.886307599727    
  14.000000000000       29.934938050731    
  14.400000000000       19.937348814670    
  14.800000000000       22.426428897314    
  15.200000000000       17.523359037316    
  15.600000000000       24.915606668271    
  16.000000000000       19.943908622162    
  16.400000000000       32.669230737382    
  16.800000000000       19.997680942099    
  17.200000000000       30.212570792698    
  17.600000000000       15.012976481223    
  18.000000000000       12.520047692979    
  18.400000000000       12.525715022809    
  18.800000000000       19.952385520184    
  19.200000000000       7.5364930658023    
  19.600000000000       12.444493231810    
  20.000000000000       2.5081083474258    
ZONE T= "Xw:     39.9300      Yw:     22.4100      Rw:    0.100000      Zwbot:     4.50000      Zwtop:     5.00000       Specie:  1 "
 0.40000000000000       0.0000000000000    
 0.80000000000000       0.0000000000000    
  1.2000000000000       0.0000000000000    
  1.6000000000000       0.0000000000000    
  2.0000000000000       0.0000000000000    
  2.4000000000000       0.0000000000000    
  2.8000000000000       0.0000000000000    
  3.2000000000000       0.0000000000000    
  3.6000000000000       0.0000000000000    
  4.0000000000000       0.0000000000000    
  4.4000000000000       5.0187490119665    
  4.8000000000000       10.058493066674    
  5.2000000000000       17.587389073155    
  5.6000000000000       7.5208417794463    
  6.0000000000000       2.5200147569146    
  6.4000000000000       30.200057875416    
  6.8000000000000       27.561602819065    
  7.2000000000000       10.072990692408    
  7.6000000000000       7.4531480511314    
  8.0000000000000       19.997799092097    
  8.4000000000000       27.423375078522    
  8.8000000000000       40.074491977127    
  9.2000000000000       57.480368194085    
  9.6000000000000       67.707003945869    
  10.000000000000       77.676819335886    
  10.400000000000       50.216594897315    
  10.800000000000       57.680159183485    
  11.200000000000       40.044033035147    
  11.600000000000       42.488746582967    
  12.000000000000       59.919904022022    
  12.400000000000       47.455082222651    
  12.800000000000       37.429031990996    
  13.200000000000       37.462391383869    
  13.600000000000       25.026067516874    
  14.000000000000       32.577333843847    
  14.400000000000       20.057267100425    
  14.800000000000       25.075461940878    
  15.200000000000       9.9980081834911    
  15.600000000000       27.478014498824    
  16.000000000000       10.001485347835    
  16.400000000000       5.0074160446207    
  16.800000000000       2.5249201638811    
  17.200000000000       12.519474151348    
  17.600000000000       9.9604029084022    
  18.000000000000       0.0000000000000    
  18.400000000000       2.4800157150841    
  18.800000000000       0.0000000000000    
  19.200000000000       9.9392812466685    
  19.600000000000       7.4637317997682    
  20.000000000000       2.4862343844987    
ZONE T= "Xw:     39.8300      Yw:     28.4100      Rw:    0.100000      Zwbot:     16.5000      Zwtop:     17.0000       Specie:  1 "
 0.40000000000000       0.0000000000000    
 0.80000000000000       0.0000000000000    
  1.2000000000000       0.0000000000000    
  1.6000000000000       0.0000000000000    
  2.0000000000000       0.0000000000000    
  2.4000000000000       0.0000000000000    
  2.8000000000000       0.0000000000000    
  3.2000000000000       0.0000000000000    
  3.6000000000000       0.0000000000000    
  4.0000000000000       0.0000000000000    
  4.4000000000000       0.0000000000000    
  4.8000000000000       0.0000000000000    
  5.2000000000000       0.0000000000000    
  5.6000000000000       0.0000000000000    
  6.0000000000000       0.0000000000000    
  6.4000000000000       0.0000000000000    
  6.8000000000000       0.0000000000000    
  7.2000000000000       2.5157658172112    
  7.6000000000000       12.507038715494    
  8.0000000000000       2.4911584247635    
  8.4000000000000       0.0000000000000    
  8.8000000000000       7.5527458690313    
  9.2000000000000       7.5007844446055    
  9.6000000000000       22.605090295953    
  10.000000000000       15.019652589083    
  10.400000000000       12.517495170517    
  10.800000000000       20.024151192210    
  11.200000000000       12.520550555640    
  11.600000000000       14.972259053464    
  12.000000000000       32.484061230678    
  12.400000000000       27.517161300965    
  12.800000000000       7.4583214520658    
  13.200000000000       9.9285499436738    
  13.600000000000       15.048196123742    
  14.000000000000       29.880419121632    
  14.400000000000       25.155914653788    
  14.800000000000       12.549975190301    
  15.200000000000       19.925536810167    
  15.600000000000       17.348405901841    
  16.000000000000       32.504882530625    
  16.400000000000       32.606798721287    
  16.800000000000       27.658916630063    
  17.200000000000       42.385982316760    
  17.600000000000       12.523720003416    
  18.000000000000       12.528893151464    
  18.400000000000       4.9765582784428    
  18.800000000000       7.5350817950568    
  19.200000000000       7.5508784118761    
  19.600000000000       0.0000000000000    
  20.000000000000       12.431303477139    
ZONE T= "Xw:     39.9300      Yw:     28.4100      Rw:    0.100000      Zwbot:     13.5000      Zwtop:     14.0000       Specie:  1 "
 0.40000000000000       0.0000000000000    
 0.80000000000000       0.0000000000000    
  1.2000000000000       0.0000000000000    
  1.6000000000000       0.0000000000000    
  2.0000000000000       0.0000000000000    
  2.4000000000000       0.0000000000000    
  2.8000000000000       0.0000000000000    
  3.2000000000000       0.0000000000000    
  3.6000000000000       0.0000000000000    
  4.0000000000000       0.0000000000000    
  4.4000000000000       0.0000000000000    
  4.8000000000000       0.0000000000000    
  5.2000000000000       0.0000000000000    
  5.6000000000000       0.0000000000000    
  6.0000000000000       0.0000000000000    
  6.4000000000000       0.0000000000000    
  6.8000000000000       0.0000000000000    
  7.2000000000000       0.0000000000000    
  7.6000000000000       0.0000000000000    
  8.0000000000000       0.0000000000000    
  8.4000000000000       0.0000000000000    
  8.8000000000000       0.0000000000000    
  9.2000000000000       0.0000000000000    
  9.6000000000000       2.5092756053989    
  10.000000000000       0.0000000000000    
  10.400000000000       10.037102421596    
  10.800000000000       0.0000000000000    
  11.200000000000       0.0000000000000    
  11.600000000000       0.0000000000000    
  12.000000000000       0.0000000000000    
  12.400000000000       0.0000000000000    
  12.800000000000       0.0000000000000    
  13.200000000000       7.5278268161968    
  13.600000000000       5.0185512107978    
  14.000000000000       0.0000000000000    
  14.400000000000       5.0505620406753    
  14.800000000000       2.5128087165403    
  15.200000000000       2.5255046173641    
  15.600000000000       2.5128087165403    
  16.000000000000       0.0000000000000    
  16.400000000000       0.0000000000000    
  16.800000000000       0.0000000000000    
  17.200000000000       7.5765138520922    
  17.600000000000       0.0000000000000    
  18.000000000000       4.9908262073368    
  18.400000000000       0.0000000000000    
  18.800000000000       4.9756626997655    
  19.200000000000       9.9664889071023    
  19.600000000000       0.0000000000000    
  20.000000000000       5.0136077208434    
ZONE T= "Xw:     39.8300      Yw:     28.4100      Rw:    0.100000      Zwbot:     10.6000      Zwtop:     11.2000       Specie:  1 "
 0.40000000000000       0.0000000000000    
 0.80000000000000       2.5209514569301    
  1.2000000000000       0.0000000000000    
  1.6000000000000       0.0000000000000    
  2.0000000000000       0.0000000000000    
  2.4000000000000       9.9806512035122    
  2.8000000000000       12.600566617113    
  3.2000000000000       17.575084660110    
  3.6000000000000       10.020133503730    
  4.0000000000000       12.369431889406    
  4.4000000000000       7.5098743411139    
  4.8000000000000       17.468098023997    
  5.2000000000000       9.9388200509999    
  5.6000000000000       12.465968180208    
  6.0000000000000       9.9612255215601    
  6.4000000000000       19.934042155515    
  6.8000000000000       12.589205427795    
  7.2000000000000       27.492860674878    
  7.6000000000000       22.543464861670    
  8.0000000000000       32.333405636092    
  8.4000000000000       27.330837671144    
  8.8000000000000       17.494127912784    
  9.2000000000000       15.014596803711    
  9.6000000000000       15.008223948515    
  10.000000000000       22.517641097672    
  10.400000000000       22.670264732502    
  10.800000000000       4.9865967134501    
  11.200000000000       22.467332559526    
  11.600000000000       7.4971094144585    
  12.000000000000       40.115961467106    
  12.400000000000       22.502005991703    
  12.800000000000       15.099729153682    
  13.200000000000       22.541880976486    
  13.600000000000       17.435144428305    
  14.000000000000       32.662512890508    
  14.400000000000       30.255409583016    
  14.800000000000       15.084378172454    
  15.200000000000       19.891981245698    
  15.600000000000       19.929195897570    
  16.000000000000       9.9670676740671    
  16.400000000000       2.5211796071606    
  16.800000000000       15.040227929672    
  17.200000000000       27.412537555041    
  17.600000000000       12.477518705701    
  18.000000000000       25.009556051333    
  18.400000000000       19.910321012204    
  18.800000000000       9.9208887744871    
  19.200000000000       17.457173643469    
  19.600000000000       7.4922272800972    
  20.000000000000       2.5067754079044    
ZONE T= "Xw:     39.8300      Yw:     28.4100      Rw:    0.100000      Zwbot:     7.60000      Zwtop:     8.30000       Specie:  1 "
 0.40000000000000       0.0000000000000    
 0.80000000000000       0.0000000000000    
  1.2000000000000       0.0000000000000    
  1.6000000000000       0.0000000000000    
  2.0000000000000       2.5188831921809    
  2.4000000000000       5.0377663843619    
  2.8000000000000       7.5428350376860    
  3.2000000000000       15.084460921258    
  3.6000000000000       5.0350444358835    
  4.0000000000000       5.0323224874052    
  4.4000000000000       2.4994969341598    
  4.8000000000000       7.5395718773100    
  5.2000000000000       15.091715540844    
  5.6000000000000       7.4800494111577    
  6.0000000000000       27.578254639299    
  6.4000000000000       27.420696268265    
  6.8000000000000       20.011163888349    
  7.2000000000000       29.969982781258    
  7.6000000000000       22.444547412571    
  8.0000000000000       15.014277537646    
  8.4000000000000       37.512733387207    
  8.8000000000000       37.598228338529    
  9.2000000000000       30.041461016979    
  9.6000000000000       32.459194525010    
  10.000000000000       12.433456888573    
  10.400000000000       24.965021250107    
  10.800000000000       29.927875428382    
  11.200000000000       37.242080782287    
  11.600000000000       42.274554786444    
  12.000000000000       34.743407785859    
  12.400000000000       29.874039744864    
  12.800000000000       24.919475179345    
  13.200000000000       42.466172947275    
  13.600000000000       39.898506255202    
  14.000000000000       24.938730406012    
  14.400000000000       47.656963630526    
  14.800000000000       12.553265998883    
  15.200000000000       9.9341374384300    
  15.600000000000       15.134951639418    
  16.000000000000       19.991957629631    
  16.400000000000       34.941545665591    
  16.800000000000       30.001320882096    
  17.200000000000       7.4219896405817    
  17.600000000000       14.954515232013    
  18.000000000000       44.712476367807    
  18.400000000000       24.918869542584    
  18.800000000000       17.324025192314    
  19.200000000000       9.9952402582744    
  19.600000000000       22.391076170349    
  20.000000000000       9.9326481709650    
ZONE T= "Xw:     39.8300      Yw:     28.5100      Rw:    0.100000      Zwbot:     4.50000      Zwtop:     5.00000       Specie:  1 "
 0.40000000000000       9.9945177639539    
 0.80000000000000       0.0000000000000    
  1.2000000000000       27.388895740873    
  1.6000000000000       19.975501418378    
  2.0000000000000       4.9529491664555    
  2.4000000000000       39.864664983885    
  2.8000000000000       27.630389425715    
  3.2000000000000       42.460973120311    
  3.6000000000000       42.384210316008    
  4.0000000000000       29.987674441842    
  4.4000000000000       20.102149527720    
  4.8000000000000       29.868709880925    
  5.2000000000000       29.986450867402    
  5.6000000000000       19.974098688371    
  6.0000000000000       44.924375340771    
  6.4000000000000       37.412613807079    
  6.8000000000000       37.397248661078    
  7.2000000000000       60.028070971698    
  7.6000000000000       77.302198130311    
  8.0000000000000       44.863348340415    
  8.4000000000000       32.375782356184    
  8.8000000000000       12.519519591842    
  9.2000000000000       27.521654452638    
  9.6000000000000       42.346993240035    
  10.000000000000       24.963719766136    
  10.400000000000       20.010921436369    
  10.800000000000       35.108318770872    
  11.200000000000       19.984317164118    
  11.600000000000       17.465773210894    
  12.000000000000       40.084025020973    
  12.400000000000       15.045262809618    
  12.800000000000       17.565114340358    
  13.200000000000       15.091687458306    
  13.600000000000       0.0000000000000    
  14.000000000000       19.976039210629    
  14.400000000000       5.0086599403507    
  14.800000000000       7.5923241685011    
  15.200000000000       5.0423592143212    
  15.600000000000       0.0000000000000    
  16.000000000000       0.0000000000000    
  16.400000000000       4.9621684566715    
  16.800000000000       2.4683891317779    
  17.200000000000       19.861915849850    
  17.600000000000       0.0000000000000    
  18.000000000000       4.9604991921941    
  18.400000000000       2.4802495960971    
  18.800000000000       0.0000000000000    
  19.200000000000       0.0000000000000    
  19.600000000000       0.0000000000000    
  20.000000000000       0.0000000000000    
ZONE T= "Xw:     39.5300      Yw:     34.0100      Rw:    0.100000      Zwbot:     16.7000      Zwtop:     17.3000       Specie:  1 "
 0.40000000000000       4.9616335451124    
 0.80000000000000       4.9315401734055    
  1.2000000000000       4.9917269168193    
  1.6000000000000       7.4875903752289    
  2.0000000000000       2.4958634584096    
  2.4000000000000       12.469703457384    
  2.8000000000000       2.4767144893980    
  3.2000000000000       4.9664011122859    
  3.6000000000000       15.031276099977    
  4.0000000000000       0.0000000000000    
  4.4000000000000       0.0000000000000    
  4.8000000000000       14.991860821719    
  5.2000000000000       12.488351275194    
  5.6000000000000       2.4906111851957    
  6.0000000000000       12.522767630061    
  6.4000000000000       10.022520571726    
  6.8000000000000       7.5176924022053    
  7.2000000000000       12.523013912786    
  7.6000000000000       10.065736339548    
  8.0000000000000       7.4422389493533    
  8.4000000000000       37.536046812587    
  8.8000000000000       47.498446405495    
  9.2000000000000       22.509633350944    
  9.6000000000000       27.443919341084    
  10.000000000000       29.969721319714    
  10.400000000000       45.004972976235    
  10.800000000000       22.477075574768    
  11.200000000000       39.931271122881    
  11.600000000000       22.527534930918    
  12.000000000000       20.119159953624    
  12.400000000000       15.065995745529    
  12.800000000000       35.010511770473    
  13.200000000000       17.337206035299    
  13.600000000000       20.093039799699    
  14.000000000000       30.074910316472    
  14.400000000000       25.150553171987    
  14.800000000000       32.492791819916    
  15.200000000000       20.115814399840    
  15.600000000000       7.5566237993738    
  16.000000000000       17.448268569880    
  16.400000000000       5.0125353704600    
  16.800000000000       19.925792874886    
  17.200000000000       22.474703502754    
  17.600000000000       27.513683358817    
  18.000000000000       32.578928120960    
  18.400000000000       14.924148299470    
  18.800000000000       12.495638000230    
  19.200000000000       14.977532819635    
  19.600000000000       15.036589943917    
  20.000000000000       4.9622704108265    
ZONE T= "Xw:     39.5300      Yw:     34.1100      Rw:    0.100000      Zwbot:     13.5000      Zwtop:     14.0000       Specie:  1 "
 0.40000000000000       0.0000000000000    
 0.80000000000000       0.0000000000000    
  1.2000000000000       0.0000000000000    
  1.6000000000000       0.0000000000000    
  2.0000000000000       0.0000000000000    
  2.4000000000000       0.0000000000000    
  2.8000000000000       0.0000000000000    
  3.2000000000000       5.0353835044479    
  3.6000000000000       2.5176917522240    
  4.0000000000000       0.0000000000000    
  4.4000000000000       2.4897145485882    
  4.8000000000000       2.4897145485882    
  5.2000000000000       7.4691436457645    
  5.6000000000000       5.0010462639636    
  6.0000000000000       4.9675274718498    
  6.4000000000000       0.0000000000000    
  6.8000000000000       0.0000000000000    
  7.2000000000000       4.9717851500426    
  7.6000000000000       7.4789093664869    
  8.0000000000000       5.0304077364079    
  8.4000000000000       15.013184587836    
  8.8000000000000       15.007086456469    
  9.2000000000000       12.537263434176    
  9.6000000000000       15.016933349927    
  10.000000000000       39.992389051216    
  10.400000000000       27.450225662821    
  10.800000000000       20.020698700681    
  11.200000000000       22.503076550832    
  11.600000000000       4.9824535837962    
  12.000000000000       5.0037780219111    
  12.400000000000       35.054567807542    
  12.800000000000       17.417858294267    
  13.200000000000       32.558215118861    
  13.600000000000       22.460572403722    
  14.000000000000       24.927965988226    
  14.400000000000       7.4933108856429    
  14.800000000000       15.055623229462    
  15.200000000000       10.016432090484    
  15.600000000000       29.955857675383    
  16.000000000000       45.097664627300    
  16.400000000000       10.054556335088    
  16.800000000000       12.513649386853    
  17.200000000000       27.583535893270    
  17.600000000000       19.959542935643    
  18.000000000000       32.428170605158    
  18.400000000000       15.008252836646    
  18.800000000000       25.050418534777    
  19.200000000000       17.462406775480    
  19.600000000000       25.004117446781    
  20.000000000000       4.9650656441547    
ZONE T= "Xw:     39.4300      Yw:     34.0100      Rw:    0.100000      Zwbot:     10.5000      Zwtop:     11.1000       Specie:  1 "
 0.40000000000000       32.544999191433    
 0.80000000000000       2.5176917522240    
  1.2000000000000       10.006793862924    
  1.6000000000000       29.874214637094    
  2.0000000000000       19.925769874999    
  2.4000000000000       12.467176032863    
  2.8000000000000       32.452353112066    
  3.2000000000000       30.009031291329    
  3.6000000000000       37.462100534303    
  4.0000000000000       37.404080728989    
  4.4000000000000       37.482281616486    
  4.8000000000000       14.994694490737    
  5.2000000000000       19.988638257410    
  5.6000000000000       17.506428712758    
  6.0000000000000       40.022802327860    
  6.4000000000000       45.037599428478    
  6.8000000000000       29.996368867965    
  7.2000000000000       32.561088415229    
  7.6000000000000       32.456697467055    
  8.0000000000000       37.549451400999    
  8.4000000000000       20.033677469441    
  8.8000000000000       19.998803598606    
  9.2000000000000       19.908132398511    
  9.6000000000000       24.957918556486    
  10.000000000000       9.9672676959505    