 TITLE="TECPLOT input file: Breakthrough Curves" 
 VARIABLES="Time" "Concentrations" 
ZONE T= "Xw:     39.9300      Yw:     22.4100      Rw:    0.100000      Zwbot:     16.5000      Zwtop:     17.0000       Specie:  1 "
  0.0000000000000       0.0000000000000    
  0.0000000000000       0.0000000000000    
  0.0000000000000       0.0000000000000    
  0.0000000000000       0.0000000000000    
  0.0000000000000       0.0000000000000    
  0.0000000000000       0.0000000000000    
  0.0000000000000       0.0000000000000    
  0.0000000000000       0.0000000000000    
  0.0000000000000       0.0000000000000    
  0.0000000000000       0.0000000000000    
  0.0000000000000       0.0000000000000    
  0.0000000000000       0.0000000000000    
  0.0000000000000       0.0000000000000    
  0.0000000000000       0.0000000000000    
  0.0000000000000       0.0000000000000    
  0.0000000000000       0.0000000000000    
  0.0000000000000       0.0000000000000    
  0.0000000000000       0.0000000000000    
  0.0000000000000       0.0000000000000    
  0.0000000000000       0.0000000000000    
  0.0000000000000       0.0000000000000    
  0.0000000000000       0.0000000000000    
  0.0000000000000       0.0000000000000    
  0.0000000000000       0.0000000000000    
  0.0000000000000       0.0000000000000    
  0.0000000000000       0.0000000000000    
  0.0000000000000       0.0000000000000    
  0.0000000000000       0.0000000000000    
  0.0000000000000       0.0000000000000    
  0.0000000000000       0.0000000000000    
  0.0000000000000       0.0000000000000    
  0.0000000000000       0.0000000000000    
  0.0000000000000       0.0000000000000    
  0.0000000000000       0.0000000000000    
  0.0000000000000       0.0000000000000    
  0.0000000000000       0.0000000000000    
  0.0000000000000       0.0000000000000    
  0.0000000000000       0.0000000000000    
  0.0000000000000       0.0000000000000    
  0.0000000000000       0.0000000000000    
  0.0000000000000       0.0000000000000    
  0.0000000000000       0.0000000000000    
  0.0000000000000       0.0000000000000    
  0.0000000000000       0.0000000000000    
  0.0000000000000       0.0000000000000    
  0.0000000000000       0.0000000000000    
  0.0000000000000       0.0000000000000    
  0.0000000000000       0.0000000000000    
  0.0000000000000       0.0000000000000    
  0.0000000000000       0.0000000000000    
ZONE T= "Xw:     39.9300      Yw:     22.4100      Rw:    0.100000      Zwbot:     13.5000      Zwtop:     14.0000       Specie:  1 "
 0.40000000000000       0.0000000000000    
 0.80000000000000       0.0000000000000    
  1.2000000000000       0.0000000000000    
  1.6000000000000       0.0000000000000    
  2.0000000000000       0.0000000000000    
  2.4000000000000       0.0000000000000    
  2.8000000000000       0.0000000000000    
  3.2000000000000       0.0000000000000    
  3.6000000000000       0.0000000000000    
  4.0000000000000       0.0000000000000    
  4.4000000000000       0.0000000000000    
  4.8000000000000       0.0000000000000    
  5.2000000000000       0.0000000000000    
  5.6000000000000       0.0000000000000    
  6.0000000000000       0.0000000000000    
  6.4000000000000       0.0000000000000    
  6.8000000000000       0.0000000000000    
  7.2000000000000       0.0000000000000    
  7.6000000000000       0.0000000000000    
  8.0000000000000       0.0000000000000    
  8.4000000000000       0.0000000000000    
  8.8000000000000       0.0000000000000    
  9.2000000000000       0.0000000000000    
  9.6000000000000       0.0000000000000    
  10.000000000000       0.0000000000000    
  10.400000000000       0.0000000000000    
  10.800000000000       0.0000000000000    
  11.200000000000       0.0000000000000    
  11.600000000000       0.0000000000000    
  12.000000000000       0.0000000000000    
  12.400000000000       0.0000000000000    
  12.800000000000       5.0475445931431    
  13.200000000000       0.0000000000000    
  13.600000000000       5.0377089780645    
  14.000000000000       0.0000000000000    
  14.400000000000       0.0000000000000    
  14.800000000000       2.5188544890323    
  15.200000000000       5.0208488029828    
  15.600000000000       7.5565634670968    
  16.000000000000       2.4797792520285    
  16.400000000000       5.0475445931431    
  16.800000000000       7.5617013937251    
  17.200000000000       2.5188544890323    
  17.600000000000       2.4797792520285    
  18.000000000000       2.4885613899655    
  18.400000000000       15.033661272434    
  18.800000000000       9.9670806150789    
  19.200000000000       2.5034866676644    
  19.600000000000       14.958055829271    
  20.000000000000       0.0000000000000    
ZONE T= "Xw:     39.9300      Yw:     22.3100      Rw:    0.100000      Zwbot:     10.5000      Zwtop:     11.0000       Specie:  1 "
 0.40000000000000       0.0000000000000    
 0.80000000000000       0.0000000000000    
  1.2000000000000       0.0000000000000    
  1.6000000000000       0.0000000000000    
  2.0000000000000       0.0000000000000    
  2.4000000000000       0.0000000000000    
  2.8000000000000       0.0000000000000    
  3.2000000000000       0.0000000000000    
  3.6000000000000       7.5441765869762    
  4.0000000000000       0.0000000000000    
  4.4000000000000       7.5164527390958    
  4.8000000000000       2.4813558320835    
  5.2000000000000       10.081485512081    
  5.6000000000000       2.5203713780203    
  6.0000000000000       0.0000000000000    
  6.4000000000000       2.4806196837635    
  6.8000000000000       2.5188544890323    
  7.2000000000000       9.9414710918900    
  7.6000000000000       19.956263315402    
  8.0000000000000       22.419919824367    
  8.4000000000000       19.968065229814    
  8.8000000000000       22.430256451421    
  9.2000000000000       27.591342699730    
  9.6000000000000       19.940198389285    
  10.000000000000       24.928957312140    
  10.400000000000       42.342207774094    
  10.800000000000       17.406645647888    
  11.200000000000       32.462569543713    
  11.600000000000       20.010501290526    
  12.000000000000       25.021939692913    
  12.400000000000       32.424590356898    
  12.800000000000       22.493346139022    
  13.200000000000       5.0191431950616    
  13.600000000000       19.969983009822    
  14.000000000000       27.402172136250    
  14.400000000000       15.042895408844    
  14.800000000000       9.9642067897021    
  15.200000000000       19.996353327907    
  15.600000000000       9.9226273303869    
  16.000000000000       10.000893361773    
  16.400000000000       2.5138230053531    
  16.800000000000       4.9572579663558    
  17.200000000000       15.005474434035    
  17.600000000000       15.010457684605    
  18.000000000000       12.460599766184    
  18.400000000000       7.5021865006089    
  18.800000000000       12.513570697847    
  19.200000000000       7.5065679159106    
  19.600000000000       9.9811176040394    
  20.000000000000       0.0000000000000    
ZONE T= "Xw:     40.0300      Yw:     22.4100      Rw:    0.100000      Zwbot:     7.60000      Zwtop:     8.10000       Specie:  1 "
 0.40000000000000       0.0000000000000    
 0.80000000000000       0.0000000000000    
  1.2000000000000       0.0000000000000    
  1.6000000000000       0.0000000000000    
  2.0000000000000       0.0000000000000    
  2.4000000000000       0.0000000000000    
  2.8000000000000       0.0000000000000    
  3.2000000000000       0.0000000000000    
  3.6000000000000       0.0000000000000    
  4.0000000000000       0.0000000000000    
  4.4000000000000       0.0000000000000    
  4.8000000000000       0.0000000000000    
  5.2000000000000       2.4787024018286    
  5.6000000000000       9.9232602884251    
  6.0000000000000       7.4819716811247    
  6.4000000000000       12.456689650300    
  6.8000000000000       22.597031954680    
  7.2000000000000       12.555283569707    
  7.6000000000000       32.482108469858    
  8.0000000000000       10.000744804570    
  8.4000000000000       25.010140457963    
  8.8000000000000       32.533859876071    
  9.2000000000000       27.529728931825    
  9.6000000000000       49.921902700831    
  10.000000000000       25.024092447256    
  10.400000000000       17.462234269991    
  10.800000000000       47.555080464224    
  11.200000000000       27.415613504303    
  11.600000000000       39.862774922772    
  12.000000000000       39.953339362714    
  12.400000000000       45.007144656619    
  12.800000000000       22.426759734077    
  13.200000000000       42.341345917845    
  13.600000000000       32.423773006756    
  14.000000000000       27.392910058754    
  14.400000000000       27.434243742147    
  14.800000000000       34.838597587305    
  15.200000000000       42.205280707522    
  15.600000000000       44.858572938852    
  16.000000000000       24.944356859843    
  16.400000000000       24.962266120272    
  16.800000000000       15.039909294055    
  17.200000000000       9.9530632215898    
  17.600000000000       9.9513281158576    
  18.000000000000       0.0000000000000    
  18.400000000000       2.5069581601465    
  18.800000000000       0.0000000000000    
  19.200000000000       7.4858874191340    
  19.600000000000       15.084968472127    
  20.000000000000       7.4885920463858    
ZONE T= "Xw:     39.9300      Yw:     22.4100      Rw:    0.100000      Zwbot:     4.50000      Zwtop:     5.00000       Specie:  1 "
 0.40000000000000       0.0000000000000    
 0.80000000000000       0.0000000000000    
  1.2000000000000       0.0000000000000    
  1.6000000000000       0.0000000000000    
  2.0000000000000       0.0000000000000    
  2.4000000000000       0.0000000000000    
  2.8000000000000       0.0000000000000    
  3.2000000000000       2.4990082721010    
  3.6000000000000       2.4858448110210    
  4.0000000000000       4.9766707728739    
  4.4000000000000       5.0094740562564    
  4.8000000000000       7.5025805957526    
  5.2000000000000       22.466501671821    
  5.6000000000000       17.532597342253    
  6.0000000000000       7.4647631511399    
  6.4000000000000       17.555509549900    
  6.8000000000000       7.4691067813732    
  7.2000000000000       32.430341261125    
  7.6000000000000       45.021834974318    
  8.0000000000000       44.938682245175    
  8.4000000000000       22.471713761588    
  8.8000000000000       49.940704295318    
  9.2000000000000       17.495049157566    
  9.6000000000000       42.476863897747    
  10.000000000000       50.083312435368    
  10.400000000000       27.370004918891    
  10.800000000000       27.464275606540    
  11.200000000000       34.937402550256    
  11.600000000000       47.462275582305    
  12.000000000000       22.521105240598    
  12.400000000000       35.093287656361    
  12.800000000000       25.076867177116    
  13.200000000000       15.080623008565    
  13.600000000000       12.576798652987    
  14.000000000000       22.612456216280    
  14.400000000000       20.028045021353    
  14.800000000000       25.055927985797    
  15.200000000000       12.545478270362    
  15.600000000000       7.5277404232276    
  16.000000000000       12.517427838617    
  16.400000000000       5.0138877309001    
  16.800000000000       2.5266541702415    
  17.200000000000       7.4576391124523    
  17.600000000000       2.4924093941844    
  18.000000000000       2.5037356100133    
  18.400000000000       7.5073420166627    
  18.800000000000       7.5086973249255    
  19.200000000000       5.0101818365522    
  19.600000000000       9.9674638135342    
  20.000000000000       2.4781602041084    
ZONE T= "Xw:     39.8300      Yw:     28.4100      Rw:    0.100000      Zwbot:     16.5000      Zwtop:     17.0000       Specie:  1 "
 0.40000000000000       0.0000000000000    
 0.80000000000000       0.0000000000000    
  1.2000000000000       0.0000000000000    
  1.6000000000000       0.0000000000000    
  2.0000000000000       0.0000000000000    
  2.4000000000000       0.0000000000000    
  2.8000000000000       0.0000000000000    
  3.2000000000000       0.0000000000000    
  3.6000000000000       0.0000000000000    
  4.0000000000000       0.0000000000000    
  4.4000000000000       2.5136519678165    
  4.8000000000000       2.5136519678165    
  5.2000000000000       0.0000000000000    
  5.6000000000000       0.0000000000000    
  6.0000000000000       5.0273039356329    
  6.4000000000000       2.5136519678165    
  6.8000000000000       2.5136519678165    
  7.2000000000000       7.5348582411954    
  7.6000000000000       9.9741677241880    
  8.0000000000000       7.4666134186256    
  8.4000000000000       4.9529614508091    
  8.8000000000000       2.5219777523634    
  9.2000000000000       2.4764807254046    
  9.6000000000000       2.4764807254046    
  10.000000000000       2.4764807254046    
  10.400000000000       7.4783011547756    
  10.800000000000       14.965174571417    
  11.200000000000       17.656621041885    
  11.600000000000       22.494046633758    
  12.000000000000       25.113102546270    
  12.400000000000       27.601278583811    
  12.800000000000       17.665386906442    
  13.200000000000       32.537982241687    
  13.600000000000       12.488910999297    
  14.000000000000       19.975536997526    
  14.400000000000       10.122135351677    
  14.800000000000       17.660161875792    
  15.200000000000       32.664237142843    
  15.600000000000       17.513908599604    
  16.000000000000       10.095247636025    
  16.400000000000       22.687570390191    
  16.800000000000       20.070464185872    
  17.200000000000       12.609631635710    
  17.600000000000       32.535776870001    
  18.000000000000       7.5787708318788    
  18.400000000000       10.069030239006    
  18.800000000000       12.534859281497    
  19.200000000000       17.456732252544    
  19.600000000000       20.128055731352    
  20.000000000000       2.5351957605338    
ZONE T= "Xw:     39.9300      Yw:     28.4100      Rw:    0.100000      Zwbot:     13.5000      Zwtop:     14.0000       Specie:  1 "
 0.40000000000000       0.0000000000000    
 0.80000000000000       0.0000000000000    
  1.2000000000000       0.0000000000000    
  1.6000000000000       0.0000000000000    
  2.0000000000000       0.0000000000000    
  2.4000000000000       0.0000000000000    
  2.8000000000000       0.0000000000000    
  3.2000000000000       0.0000000000000    
  3.6000000000000       0.0000000000000    
  4.0000000000000       0.0000000000000    
  4.4000000000000       0.0000000000000    
  4.8000000000000       0.0000000000000    
  5.2000000000000       0.0000000000000    
  5.6000000000000       0.0000000000000    
  6.0000000000000       0.0000000000000    
  6.4000000000000       0.0000000000000    
  6.8000000000000       0.0000000000000    
  7.2000000000000       0.0000000000000    
  7.6000000000000       0.0000000000000    
  8.0000000000000       0.0000000000000    
  8.4000000000000       0.0000000000000    
  8.8000000000000       0.0000000000000    
  9.2000000000000       0.0000000000000    
  9.6000000000000       0.0000000000000    
  10.000000000000       0.0000000000000    
  10.400000000000       0.0000000000000    
  10.800000000000       0.0000000000000    
  11.200000000000       2.4725374473090    
  11.600000000000       0.0000000000000    
  12.000000000000       4.9450748946180    
  12.400000000000       7.4176123419270    
  12.800000000000       2.4725374473090    
  13.200000000000       4.9450748946180    
  13.600000000000       2.4725374473090    
  14.000000000000       0.0000000000000    
  14.400000000000       0.0000000000000    
  14.800000000000       0.0000000000000    
  15.200000000000       0.0000000000000    
  15.600000000000       0.0000000000000    
  16.000000000000       0.0000000000000    
  16.400000000000       0.0000000000000    
  16.800000000000       0.0000000000000    
  17.200000000000       0.0000000000000    
  17.600000000000       0.0000000000000    
  18.000000000000       0.0000000000000    
  18.400000000000       0.0000000000000    
  18.800000000000       0.0000000000000    
  19.200000000000       0.0000000000000    
  19.600000000000       0.0000000000000    
  20.000000000000       0.0000000000000    
ZONE T= "Xw:     39.8300      Yw:     28.4100      Rw:    0.100000      Zwbot:     10.6000      Zwtop:     11.2000       Specie:  1 "
 0.40000000000000       0.0000000000000    
 0.80000000000000       0.0000000000000    
  1.2000000000000       2.4707961137608    
  1.6000000000000       7.4422329498224    
  2.0000000000000       7.4496308474638    
  2.4000000000000       2.4707961137608    
  2.8000000000000       0.0000000000000    
  3.2000000000000       10.035612123605    
  3.6000000000000       10.037340945524    
  4.0000000000000       12.482506308183    
  4.4000000000000       10.121056099393    
  4.8000000000000       10.125468619723    
  5.2000000000000       17.642216300059    
  5.6000000000000       15.126098295182    
  6.0000000000000       0.0000000000000    
  6.4000000000000       27.538710045214    
  6.8000000000000       29.940622918936    
  7.2000000000000       27.437072094769    
  7.6000000000000       59.903251294319    
  8.0000000000000       40.015876701886    
  8.4000000000000       45.080790262384    
  8.8000000000000       37.584393795320    
  9.2000000000000       15.087974022009    
  9.6000000000000       17.612934810784    
  10.000000000000       42.477412974989    
  10.400000000000       25.100723378377    
  10.800000000000       45.099141879946    
  11.200000000000       45.156112842459    
  11.600000000000       17.650466681423    
  12.000000000000       15.052277429252    
  12.400000000000       32.417431661012    
  12.800000000000       30.121816515452    
  13.200000000000       25.010343544272    
  13.600000000000       19.976687944978    
  14.000000000000       39.961449493159    
  14.400000000000       27.510890060664    
  14.800000000000       29.886626622948    
  15.200000000000       35.120472894551    
  15.600000000000       14.960388519199    
  16.000000000000       20.103889600573    
  16.400000000000       19.828176004700    
  16.800000000000       10.026707900757    
  17.200000000000       12.617636993149    
  17.600000000000       2.5235057206190    
  18.000000000000       4.9930053798525    
  18.400000000000       17.446576687845    
  18.800000000000       4.9389993184671    
  19.200000000000       0.0000000000000    
  19.600000000000       0.0000000000000    
  20.000000000000       0.0000000000000    
ZONE T= "Xw:     39.8300      Yw:     28.4100      Rw:    0.100000      Zwbot:     7.60000      Zwtop:     8.30000       Specie:  1 "
 0.40000000000000       0.0000000000000    
 0.80000000000000       0.0000000000000    
  1.2000000000000       0.0000000000000    
  1.6000000000000       0.0000000000000    
  2.0000000000000       0.0000000000000    
  2.4000000000000       2.4850509241001    
  2.8000000000000       7.4503446017181    
  3.2000000000000       2.4722735167696    
  3.6000000000000       7.4764351057573    
  4.0000000000000       9.9672930560714    
  4.4000000000000       17.516990955109    
  4.8000000000000       24.939676888279    
  5.2000000000000       10.014309403544    
  5.6000000000000       25.129822584445    
  6.0000000000000       10.032601527437    
  6.4000000000000       22.459645915248    
  6.8000000000000       34.960544910858    
  7.2000000000000       49.927796671988    
  7.6000000000000       22.447332270808    
  8.0000000000000       27.518024906716    
  8.4000000000000       29.876833280610    
  8.8000000000000       29.850847819377    
  9.2000000000000       24.777454797529    
  9.6000000000000       39.899455333935    
  10.000000000000       52.463015118803    
  10.400000000000       29.974955301166    
  10.800000000000       37.617670443763    
  11.200000000000       34.925200783763    
  11.600000000000       54.993823590532    
  12.000000000000       45.149042754633    
  12.400000000000       34.997724171508    
  12.800000000000       22.502276082352    
  13.200000000000       14.887696665184    
  13.600000000000       25.069690391920    
  14.000000000000       10.024560556925    
  14.400000000000       42.614961561394    
  14.800000000000       40.237309071963    
  15.200000000000       47.580365170710    
  15.600000000000       27.584741988211    
  16.000000000000       60.096788416832    
  16.400000000000       47.703939895281    
  16.800000000000       37.527836855466    
  17.200000000000       15.097140538489    
  17.600000000000       7.5333873452474    
  18.000000000000       27.530258245887    
  18.400000000000       7.5676000596771    
  18.800000000000       35.054846181963    
  19.200000000000       29.901757027738    
  19.600000000000       24.972564054340    
  20.000000000000       19.874996684204    
ZONE T= "Xw:     39.8300      Yw:     28.5100      Rw:    0.100000      Zwbot:     4.50000      Zwtop:     5.00000       Specie:  1 "
 0.40000000000000       0.0000000000000    
 0.80000000000000       2.4690450304635    
  1.2000000000000       2.4690450304635    
  1.6000000000000       15.011510542011    
  2.0000000000000       9.9859503673278    
  2.4000000000000       4.9220971893184    
  2.8000000000000       7.4464886767119    
  3.2000000000000       14.964918645131    
  3.6000000000000       7.4128804180528    
  4.0000000000000       24.830139405237    
  4.4000000000000       17.434648659214    
  4.8000000000000       19.978336519074    
  5.2000000000000       24.988534786376    
  5.6000000000000       45.068247854281    
  6.0000000000000       37.439452579511    
  6.4000000000000       19.972976442472    
  6.8000000000000       37.519275002556    
  7.2000000000000       50.101415592801    
  7.6000000000000       35.021465604912    
  8.0000000000000       30.092563939275    
  8.4000000000000       22.685121454541    
  8.8000000000000       39.776256596247    
  9.2000000000000       55.246521577455    
  9.6000000000000       39.791608127608    
  10.000000000000       34.746645979498    
  10.400000000000       4.9727659434270    
  10.800000000000       2.5025189272893    
  11.200000000000       17.558018429673    
  11.600000000000       20.130371584742    
  12.000000000000       5.0364741640328    
  12.400000000000       17.583475067127    
  12.800000000000       4.9866400538671    
  13.200000000000       0.0000000000000    
  13.600000000000       0.0000000000000    
  14.000000000000       4.9438447511373    
  14.400000000000       4.9438447511373    
  14.800000000000       0.0000000000000    
  15.200000000000       0.0000000000000    
  15.600000000000       2.4948372597283    
  16.000000000000       0.0000000000000    
  16.400000000000       2.5179210319930    
  16.800000000000       0.0000000000000    
  17.200000000000       2.5179210319930    
  17.600000000000       5.0358420639859    
  18.000000000000       0.0000000000000    
  18.400000000000       0.0000000000000    
  18.800000000000       0.0000000000000    
  19.200000000000       0.0000000000000    
  19.600000000000       0.0000000000000    
  20.000000000000       0.0000000000000    
ZONE T= "Xw:     39.5300      Yw:     34.0100      Rw:    0.100000      Zwbot:     16.7000      Zwtop:     17.3000       Specie:  1 "
 0.40000000000000       30.087825984101    
 0.80000000000000       0.0000000000000    
  1.2000000000000       7.4852079311713    
  1.6000000000000       7.4680090692335    
  2.0000000000000       4.9901386207808    
  2.4000000000000       2.5088331129889    
  2.8000000000000       5.0287949148243    
  3.2000000000000       4.9975927430736    
  3.6000000000000       15.023729774922    
  4.0000000000000       12.455100037342    
  4.4000000000000       9.9872627875825    
  4.8000000000000       22.535440970372    
  5.2000000000000       17.573459242755    
  5.6000000000000       25.058839809825    
  6.0000000000000       20.016389625045    
  6.4000000000000       27.516594676626    
  6.8000000000000       15.018086948809    
  7.2000000000000       20.076881600019    
  7.6000000000000       29.970053384731    
  8.0000000000000       15.037023128533    
  8.4000000000000       62.506104493875    
  8.8000000000000       34.999017266114    
  9.2000000000000       42.524177762996    
  9.6000000000000       32.514000089306    
  10.000000000000       14.935300162388    
  10.400000000000       25.003362154864    
  10.800000000000       20.092505966397    
  11.200000000000       22.495572049134    
  11.600000000000       15.026710971111    
  12.000000000000       22.535569922338    
  12.400000000000       7.4881490639111    
  12.800000000000       12.523938530855    
  13.200000000000       22.480925405438    
  13.600000000000       25.177333858444    
  14.000000000000       7.5585917105376    
  14.400000000000       2.5017035769651    
  14.800000000000       4.9926597876034    
  15.200000000000       24.992815981367    
  15.600000000000       29.969564463460    
  16.000000000000       22.453078531936    
  16.400000000000       17.459136804879    
  16.800000000000       12.460245715870    
  17.200000000000       7.4915429421745    
  17.600000000000       5.0067588605255    
  18.000000000000       12.609453410324    
  18.400000000000       10.051863059498    
  18.800000000000       10.050287934220    
  19.200000000000       4.9917344085121    
  19.600000000000       0.0000000000000    
  20.000000000000       0.0000000000000    
ZONE T= "Xw:     39.5300      Yw:     34.1100      Rw:    0.100000      Zwbot:     13.5000      Zwtop:     14.0000       Specie:  1 "
 0.40000000000000       0.0000000000000    
 0.80000000000000       0.0000000000000    
  1.2000000000000       0.0000000000000    
  1.6000000000000       0.0000000000000    
  2.0000000000000       0.0000000000000    
  2.4000000000000       0.0000000000000    
  2.8000000000000       2.5174120332458    
  3.2000000000000       0.0000000000000    
  3.6000000000000       0.0000000000000    
  4.0000000000000       2.5182860004916    
  4.4000000000000       2.5174120332458    
  4.8000000000000       5.0356980337374    
  5.2000000000000       14.962493744828    
  5.6000000000000       10.032786638087    
  6.0000000000000       2.4888415488672    
  6.4000000000000       4.9954663915311    
  6.8000000000000       7.4315411731184    
  7.2000000000000       2.4764343300956    
  7.6000000000000       14.927869756922    
  8.0000000000000       7.4446513995407    
  8.4000000000000       7.5155449826901    
  8.8000000000000       17.481192278648    
  9.2000000000000       12.392405701876    
  9.6000000000000       14.891889219661    
  10.000000000000       19.997801375309    
  10.400000000000       12.411108116707    
  10.800000000000       9.9579450416328    
  11.200000000000       7.5058618709357    
  11.600000000000       17.546305666436    
  12.000000000000       17.583813044701    
  12.400000000000       9.9346746850179    
  12.800000000000       9.9500460710750    
  13.200000000000       14.947340853167    
  13.600000000000       7.4490736850801    
  14.000000000000       24.886833903585    
  14.400000000000       2.5192066183542    
  14.800000000000       12.468872345038    
  15.200000000000       5.0472095521599    
  15.600000000000       4.9942371464630    
  16.000000000000       4.9799433181310    
  16.400000000000       12.492445541139    
  16.800000000000       12.452602179554    
  17.200000000000       4.9785803145796    
  17.600000000000       15.017628461068    
  18.000000000000       4.9543712536471    
  18.400000000000       25.077519226804    
  18.800000000000       12.487494723212    
  19.200000000000       5.0023005605471    
  19.600000000000       22.616423079269    
  20.000000000000       5.0295547526177    
ZONE T= "Xw:     39.4300      Yw:     34.0100      Rw:    0.100000      Zwbot:     10.5000      Zwtop:     11.1000       Specie:  1 "
 0.40000000000000       7.5162512412898    
 0.80000000000000       2.4801974463487    
  1.2000000000000       2.5187277263316    
  1.6000000000000       9.9562562607998    
  2.0000000000000       22.412227717338    
  2.4000000000000       32.518930274863    
  2.8000000000000       35.141251505852    
  3.2000000000000       52.692961393282    
  3.6000000000000       35.139718052621    
  4.0000000000000       59.860305598382    
  4.4000000000000       30.042893173570    
  4.8000000000000       19.961240530344    
  5.2000000000000       25.053261905553    
  5.6000000000000       32.522101049363    
  6.0000000000000       40.007336501831    
  6.4000000000000       49.939650568976    
  6.8000000000000       22.368905424954    
  7.2000000000000       17.457292022091    
  7.6000000000000       62.267450636879    
  8.0000000000000       29.942086111145    
  8.4000000000000       40.002307287141    
  8.8000000000000       39.968483869534    
  9.2000000000000       25.139908212218    
  9.6000000000000       27.475689303274    
  10.000000000000       37.416765151726    