 TITLE="TECPLOT input file: Breakthrough Curves" 
 VARIABLES="Time" "Concentrations" 
ZONE T= "Xw:     39.9300      Yw:     22.4100      Rw:    0.100000      Zwbot:     16.5000      Zwtop:     17.0000       Specie:  1 "
  0.0000000000000       0.0000000000000    
  0.0000000000000       0.0000000000000    
  0.0000000000000       0.0000000000000    
  0.0000000000000       0.0000000000000    
  0.0000000000000       0.0000000000000    
  0.0000000000000       0.0000000000000    
  0.0000000000000       0.0000000000000    
  0.0000000000000       0.0000000000000    
  0.0000000000000       0.0000000000000    
  0.0000000000000       0.0000000000000    
  0.0000000000000       0.0000000000000    
  0.0000000000000       0.0000000000000    
  0.0000000000000       0.0000000000000    
  0.0000000000000       0.0000000000000    
  0.0000000000000       0.0000000000000    
  0.0000000000000       0.0000000000000    
  0.0000000000000       0.0000000000000    
  0.0000000000000       0.0000000000000    
  0.0000000000000       0.0000000000000    
  0.0000000000000       0.0000000000000    
  0.0000000000000       0.0000000000000    
  0.0000000000000       0.0000000000000    
  0.0000000000000       0.0000000000000    
  0.0000000000000       0.0000000000000    
  0.0000000000000       0.0000000000000    
  0.0000000000000       0.0000000000000    
  0.0000000000000       0.0000000000000    
  0.0000000000000       0.0000000000000    
  0.0000000000000       0.0000000000000    
  0.0000000000000       0.0000000000000    
  0.0000000000000       0.0000000000000    
  0.0000000000000       0.0000000000000    
  0.0000000000000       0.0000000000000    
  0.0000000000000       0.0000000000000    
  0.0000000000000       0.0000000000000    
  0.0000000000000       0.0000000000000    
  0.0000000000000       0.0000000000000    
  0.0000000000000       0.0000000000000    
  0.0000000000000       0.0000000000000    
  0.0000000000000       0.0000000000000    
  0.0000000000000       0.0000000000000    
  0.0000000000000       0.0000000000000    
  0.0000000000000       0.0000000000000    
  0.0000000000000       0.0000000000000    
  0.0000000000000       0.0000000000000    
  0.0000000000000       0.0000000000000    
  0.0000000000000       0.0000000000000    
  0.0000000000000       0.0000000000000    
  0.0000000000000       0.0000000000000    
  0.0000000000000       0.0000000000000    
ZONE T= "Xw:     39.9300      Yw:     22.4100      Rw:    0.100000      Zwbot:     13.5000      Zwtop:     14.0000       Specie:  1 "
 0.40000000000000       0.0000000000000    
 0.80000000000000       0.0000000000000    
  1.2000000000000       0.0000000000000    
  1.6000000000000       0.0000000000000    
  2.0000000000000       0.0000000000000    
  2.4000000000000       0.0000000000000    
  2.8000000000000       0.0000000000000    
  3.2000000000000       0.0000000000000    
  3.6000000000000       0.0000000000000    
  4.0000000000000       0.0000000000000    
  4.4000000000000       0.0000000000000    
  4.8000000000000       0.0000000000000    
  5.2000000000000       0.0000000000000    
  5.6000000000000       0.0000000000000    
  6.0000000000000       0.0000000000000    
  6.4000000000000       0.0000000000000    
  6.8000000000000       0.0000000000000    
  7.2000000000000       0.0000000000000    
  7.6000000000000       0.0000000000000    
  8.0000000000000       0.0000000000000    
  8.4000000000000       0.0000000000000    
  8.8000000000000       0.0000000000000    
  9.2000000000000       0.0000000000000    
  9.6000000000000       0.0000000000000    
  10.000000000000       0.0000000000000    
  10.400000000000       0.0000000000000    
  10.800000000000       0.0000000000000    
  11.200000000000       0.0000000000000    
  11.600000000000       2.5113598185891    
  12.000000000000       0.0000000000000    
  12.400000000000       2.4805689375016    
  12.800000000000       2.4805689375016    
  13.200000000000       0.0000000000000    
  13.600000000000       2.5113598185891    
  14.000000000000       7.5340794557672    
  14.400000000000       7.5419175594256    
  14.800000000000       2.5152788704183    
  15.200000000000       5.0305577408365    
  15.600000000000       2.5152788704183    
  16.000000000000       5.0331363189844    
  16.400000000000       9.9884242110636    
  16.800000000000       5.0357148971322    
  17.200000000000       0.0000000000000    
  17.600000000000       2.5066587076910    
  18.000000000000       9.9454449467129    
  18.400000000000       7.4623536743882    
  18.800000000000       7.5199761230731    
  19.200000000000       10.051460821384    
  19.600000000000       2.5247996773422    
  20.000000000000       10.028796307455    
ZONE T= "Xw:     39.9300      Yw:     22.3100      Rw:    0.100000      Zwbot:     10.5000      Zwtop:     11.0000       Specie:  1 "
 0.40000000000000       0.0000000000000    
 0.80000000000000       0.0000000000000    
  1.2000000000000       0.0000000000000    
  1.6000000000000       0.0000000000000    
  2.0000000000000       0.0000000000000    
  2.4000000000000       0.0000000000000    
  2.8000000000000       0.0000000000000    
  3.2000000000000       0.0000000000000    
  3.6000000000000       0.0000000000000    
  4.0000000000000       0.0000000000000    
  4.4000000000000       0.0000000000000    
  4.8000000000000       0.0000000000000    
  5.2000000000000       4.9677523411383    
  5.6000000000000       9.9355046822766    
  6.0000000000000       5.0493882358320    
  6.4000000000000       7.4209347406850    
  6.8000000000000       4.9476841178683    
  7.2000000000000       10.019911494927    
  7.6000000000000       37.632663335407    
  8.0000000000000       30.015798136280    
  8.4000000000000       27.475455754159    
  8.8000000000000       27.517939415413    
  9.2000000000000       25.030994689880    
  9.6000000000000       34.933994773126    
  10.000000000000       42.591658419509    
  10.400000000000       57.498697179785    
  10.800000000000       42.431468619208    
  11.200000000000       54.951661590043    
  11.600000000000       49.893616112884    
  12.000000000000       47.676073879977    
  12.400000000000       55.034418414354    
  12.800000000000       64.855716171593    
  13.200000000000       37.391291209632    
  13.600000000000       45.048260742914    
  14.000000000000       30.064319665596    
  14.400000000000       17.503551341022    
  14.800000000000       37.522843445675    
  15.200000000000       25.034048195033    
  15.600000000000       15.037520894179    
  16.000000000000       19.958656885080    
  16.400000000000       9.9651977069491    
  16.800000000000       2.4755736266924    
  17.200000000000       0.0000000000000    
  17.600000000000       2.4833893002552    
  18.000000000000       0.0000000000000    
  18.400000000000       0.0000000000000    
  18.800000000000       2.4955499053328    
  19.200000000000       7.4866497159983    
  19.600000000000       4.9910998106655    
  20.000000000000       0.0000000000000    
ZONE T= "Xw:     40.0300      Yw:     22.4100      Rw:    0.100000      Zwbot:     7.60000      Zwtop:     8.10000       Specie:  1 "
 0.40000000000000       0.0000000000000    
 0.80000000000000       0.0000000000000    
  1.2000000000000       0.0000000000000    
  1.6000000000000       0.0000000000000    
  2.0000000000000       0.0000000000000    
  2.4000000000000       0.0000000000000    
  2.8000000000000       0.0000000000000    
  3.2000000000000       0.0000000000000    
  3.6000000000000       0.0000000000000    
  4.0000000000000       0.0000000000000    
  4.4000000000000       5.0120415271033    
  4.8000000000000       4.9933792171385    
  5.2000000000000       10.027316583236    
  5.6000000000000       7.4834588657344    
  6.0000000000000       12.518995997726    
  6.4000000000000       9.9822153597712    
  6.8000000000000       4.9733271922100    
  7.2000000000000       19.994728943278    
  7.6000000000000       12.424306830473    
  8.0000000000000       10.031717628284    
  8.4000000000000       12.488389714036    
  8.8000000000000       40.126026557239    
  9.2000000000000       45.026819425218    
  9.6000000000000       22.478398480267    
  10.000000000000       72.573168017972    
  10.400000000000       42.480779150517    
  10.800000000000       29.934606464444    
  11.200000000000       37.543539155797    
  11.600000000000       39.896228484221    
  12.000000000000       37.362721457369    
  12.400000000000       37.548459877980    
  12.800000000000       30.049121493005    
  13.200000000000       67.681566856484    
  13.600000000000       72.548987706422    
  14.000000000000       57.454604399731    
  14.400000000000       42.432117932050    
  14.800000000000       30.017489516972    
  15.200000000000       22.516290109374    
  15.600000000000       29.972547958860    
  16.000000000000       32.562151109401    
  16.400000000000       15.040747659765    
  16.800000000000       14.987464620287    
  17.200000000000       9.9678647361413    
  17.600000000000       7.4880301197113    
  18.000000000000       7.4880301197113    
  18.400000000000       9.9840401596151    
  18.800000000000       0.0000000000000    
  19.200000000000       0.0000000000000    
  19.600000000000       0.0000000000000    
  20.000000000000       0.0000000000000    
ZONE T= "Xw:     39.9300      Yw:     22.4100      Rw:    0.100000      Zwbot:     4.50000      Zwtop:     5.00000       Specie:  1 "
 0.40000000000000       0.0000000000000    
 0.80000000000000       0.0000000000000    
  1.2000000000000       0.0000000000000    
  1.6000000000000       0.0000000000000    
  2.0000000000000       0.0000000000000    
  2.4000000000000       0.0000000000000    
  2.8000000000000       0.0000000000000    
  3.2000000000000       0.0000000000000    
  3.6000000000000       2.4833893002552    
  4.0000000000000       2.4955499053328    
  4.4000000000000       2.5173441268137    
  4.8000000000000       7.4929214198055    
  5.2000000000000       17.538694731984    
  5.6000000000000       12.538793940622    
  6.0000000000000       30.147632190056    
  6.4000000000000       35.125075026841    
  6.8000000000000       32.542348082964    
  7.2000000000000       14.985531529599    
  7.6000000000000       32.554341928427    
  8.0000000000000       35.007288934573    
  8.4000000000000       39.944258073073    
  8.8000000000000       62.401634840668    
  9.2000000000000       47.383194274986    
  9.6000000000000       37.346335264415    
  10.000000000000       47.331907055976    
  10.400000000000       39.786632300079    
  10.800000000000       44.875040472756    
  11.200000000000       39.959130468114    
  11.600000000000       29.977272563693    
  12.000000000000       12.483116868879    
  12.400000000000       27.490323349564    
  12.800000000000       17.499399242773    
  13.200000000000       19.999093512895    
  13.600000000000       32.487945811619    
  14.000000000000       22.580139684675    
  14.400000000000       25.017543619342    
  14.800000000000       12.575596876897    
  15.200000000000       20.061454411231    
  15.600000000000       7.5245401195545    
  16.000000000000       12.529980365797    
  16.400000000000       2.5246941179160    
  16.800000000000       5.0100877141954    
  17.200000000000       7.5190253948379    
  17.600000000000       12.484926814353    
  18.000000000000       7.4870267980299    
  18.400000000000       4.9908978994941    
  18.800000000000       7.4870267980299    
  19.200000000000       5.0036765263569    
  19.600000000000       17.473666416569    
  20.000000000000       2.4848744221908    
ZONE T= "Xw:     39.8300      Yw:     28.4100      Rw:    0.100000      Zwbot:     16.5000      Zwtop:     17.0000       Specie:  1 "
 0.40000000000000       0.0000000000000    
 0.80000000000000       0.0000000000000    
  1.2000000000000       0.0000000000000    
  1.6000000000000       0.0000000000000    
  2.0000000000000       0.0000000000000    
  2.4000000000000       0.0000000000000    
  2.8000000000000       0.0000000000000    
  3.2000000000000       0.0000000000000    
  3.6000000000000       0.0000000000000    
  4.0000000000000       0.0000000000000    
  4.4000000000000       7.5053552966918    
  4.8000000000000       10.019504105440    
  5.2000000000000       0.0000000000000    
  5.6000000000000       0.0000000000000    
  6.0000000000000       0.0000000000000    
  6.4000000000000       12.448415853214    
  6.8000000000000       22.498289082028    
  7.2000000000000       12.455691572484    
  7.6000000000000       10.048446819076    
  8.0000000000000       19.966448145364    
  8.4000000000000       17.506178271601    
  8.8000000000000       15.004595517762    
  9.2000000000000       12.446531446086    
  9.6000000000000       5.0311057801581    
  10.000000000000       2.4979215823640    
  10.400000000000       0.0000000000000    
  10.800000000000       2.4775883669992    
  11.200000000000       12.522068765237    
  11.600000000000       10.024183607225    
  12.000000000000       0.0000000000000    
  12.400000000000       4.9436768495631    
  12.800000000000       22.447946106703    
  13.200000000000       20.024709385544    
  13.600000000000       2.5185213993332    
  14.000000000000       0.0000000000000    
  14.400000000000       24.961413161321    
  14.800000000000       17.446858175019    
  15.200000000000       12.407607039675    
  15.600000000000       17.333140155138    
  16.000000000000       14.925023958683    
  16.400000000000       14.945141598047    
  16.800000000000       7.4951859528167    
  17.200000000000       22.364602025879    
  17.600000000000       12.610161339643    
  18.000000000000       2.5264346372409    
  18.400000000000       2.5061252561039    
  18.800000000000       7.5043682900179    
  19.200000000000       4.9993368916140    
  19.600000000000       20.008586466974    
  20.000000000000       9.9985851659971    
ZONE T= "Xw:     39.9300      Yw:     28.4100      Rw:    0.100000      Zwbot:     13.5000      Zwtop:     14.0000       Specie:  1 "
 0.40000000000000       0.0000000000000    
 0.80000000000000       0.0000000000000    
  1.2000000000000       0.0000000000000    
  1.6000000000000       0.0000000000000    
  2.0000000000000       0.0000000000000    
  2.4000000000000       0.0000000000000    
  2.8000000000000       0.0000000000000    
  3.2000000000000       0.0000000000000    
  3.6000000000000       0.0000000000000    
  4.0000000000000       0.0000000000000    
  4.4000000000000       0.0000000000000    
  4.8000000000000       0.0000000000000    
  5.2000000000000       0.0000000000000    
  5.6000000000000       0.0000000000000    
  6.0000000000000       0.0000000000000    
  6.4000000000000       0.0000000000000    
  6.8000000000000       0.0000000000000    
  7.2000000000000       0.0000000000000    
  7.6000000000000       0.0000000000000    
  8.0000000000000       0.0000000000000    
  8.4000000000000       0.0000000000000    
  8.8000000000000       0.0000000000000    
  9.2000000000000       0.0000000000000    
  9.6000000000000       0.0000000000000    
  10.000000000000       0.0000000000000    
  10.400000000000       2.5084835515045    
  10.800000000000       0.0000000000000    
  11.200000000000       0.0000000000000    
  11.600000000000       2.4756304314192    
  12.000000000000       0.0000000000000    
  12.400000000000       4.9641071428571    
  12.800000000000       7.4461607142857    
  13.200000000000       4.9512608628385    
  13.600000000000       2.4756304314192    
  14.000000000000       4.9976064615076    
  14.400000000000       7.5395893316626    
  14.800000000000       7.5325199930881    
  15.200000000000       5.0477188933032    
  15.600000000000       2.5155528900790    
  16.000000000000       10.078824673461    
  16.400000000000       7.5964980096724    
  16.800000000000       5.0477188933032    
  17.200000000000       0.0000000000000    
  17.600000000000       5.0643320064483    
  18.000000000000       5.0129420711112    
  18.400000000000       7.5194131066668    
  18.800000000000       2.5321660032241    
  19.200000000000       0.0000000000000    
  19.600000000000       5.0643320064483    
  20.000000000000       2.5321660032241    
ZONE T= "Xw:     39.8300      Yw:     28.4100      Rw:    0.100000      Zwbot:     10.6000      Zwtop:     11.2000       Specie:  1 "
 0.40000000000000       0.0000000000000    
 0.80000000000000       0.0000000000000    
  1.2000000000000       4.9823557937438    
  1.6000000000000       2.4911778968719    
  2.0000000000000       2.4911778968719    
  2.4000000000000       2.4911778968719    
  2.8000000000000       5.0224859730523    
  3.2000000000000       12.513961955467    
  3.6000000000000       19.980921693203    
  4.0000000000000       9.9571830752447    
  4.4000000000000       22.511049936620    
  4.8000000000000       17.574498551028    
  5.2000000000000       22.668475852756    
  5.6000000000000       22.568387464661    
  6.0000000000000       12.479199935388    
  6.4000000000000       25.049054331366    
  6.8000000000000       22.593251008803    
  7.2000000000000       20.211518415273    
  7.6000000000000       20.142582763750    
  8.0000000000000       30.059042540055    
  8.4000000000000       15.023316804378    
  8.8000000000000       22.510233268412    
  9.2000000000000       29.794223472378    
  9.6000000000000       29.850741794323    
  10.000000000000       54.651407070403    
  10.400000000000       37.433568743022    
  10.800000000000       19.981828818064    
  11.200000000000       32.431698325876    
  11.600000000000       22.377739346996    
  12.000000000000       39.748256032494    
  12.400000000000       42.526997067250    
  12.800000000000       30.106114939693    
  13.200000000000       24.963083050297    
  13.600000000000       27.516937779552    
  14.000000000000       30.058376513143    
  14.400000000000       22.614465213040    
  14.800000000000       5.0329396436807    
  15.200000000000       12.590799220947    
  15.600000000000       15.150333240219    
  16.000000000000       20.099099004824    
  16.400000000000       17.524108233527    
  16.800000000000       17.476926262138    
  17.200000000000       25.133416488236    
  17.600000000000       7.5177328602920    
  18.000000000000       10.012083870155    
  18.400000000000       19.958248556367    
  18.800000000000       22.521951584007    
  19.200000000000       15.006092779956    
  19.600000000000       12.510092710101    
  20.000000000000       7.4473577309256    
ZONE T= "Xw:     39.8300      Yw:     28.4100      Rw:    0.100000      Zwbot:     7.60000      Zwtop:     8.30000       Specie:  1 "
 0.40000000000000       0.0000000000000    
 0.80000000000000       0.0000000000000    
  1.2000000000000       0.0000000000000    
  1.6000000000000       7.4449706992565    
  2.0000000000000       0.0000000000000    
  2.4000000000000       2.4617671897635    
  2.8000000000000       0.0000000000000    
  3.2000000000000       2.4617671897635    
  3.6000000000000       0.0000000000000    
  4.0000000000000       2.4816568997522    
  4.4000000000000       7.4339083553068    
  4.8000000000000       12.348115900834    
  5.2000000000000       12.351564826540    
  5.6000000000000       27.408477066387    
  6.0000000000000       17.380904668730    
  6.4000000000000       29.903621751104    
  6.8000000000000       27.303465220363    
  7.2000000000000       47.210859453681    
  7.6000000000000       49.783884075011    
  8.0000000000000       27.315406589538    
  8.4000000000000       27.512977463389    
  8.8000000000000       40.161776481363    
  9.2000000000000       15.117044342174    
  9.6000000000000       40.025899397195    
  10.000000000000       22.544490486998    
  10.400000000000       30.025800664283    
  10.800000000000       17.481694644013    
  11.200000000000       22.386454329878    
  11.600000000000       25.204512456580    
  12.000000000000       29.923551875186    
  12.400000000000       32.412653918233    
  12.800000000000       7.4670337913251    
  13.200000000000       27.322037487513    
  13.600000000000       32.367013688082    
  14.000000000000       10.081034369014    
  14.400000000000       40.165601188307    
  14.800000000000       27.665709291749    
  15.200000000000       34.947900215511    
  15.600000000000       10.104430116783    
  16.000000000000       15.113774821455    
  16.400000000000       15.024524606582    
  16.800000000000       15.079785021579    
  17.200000000000       17.614243935782    
  17.600000000000       25.193292040909    
  18.000000000000       17.674797142432    
  18.400000000000       7.5171892291124    
  18.800000000000       20.118104646897    
  19.200000000000       17.585802906991    
  19.600000000000       9.9863705952200    
  20.000000000000       7.4348470735290    
ZONE T= "Xw:     39.8300      Yw:     28.5100      Rw:    0.100000      Zwbot:     4.50000      Zwtop:     5.00000       Specie:  1 "
 0.40000000000000       2.5084835515045    
 0.80000000000000       7.5505587953533    
  1.2000000000000       5.0253364832889    
  1.6000000000000       12.457942710578    
  2.0000000000000       9.9742749768515    
  2.4000000000000       30.041527387152    
  2.8000000000000       24.980840594529    
  3.2000000000000       37.384161820613    
  3.6000000000000       27.468366295063    
  4.0000000000000       25.017027735299    
  4.4000000000000       70.088567120828    
  4.8000000000000       32.511176995434    
  5.2000000000000       25.191714419666    
  5.6000000000000       20.128186683788    
  6.0000000000000       29.856217063596    
  6.4000000000000       24.936654558340    
  6.8000000000000       34.886952257355    
  7.2000000000000       49.982527186446    
  7.6000000000000       65.033418957997    
  8.0000000000000       37.485875607121    
  8.4000000000000       27.563238255284    
  8.8000000000000       24.854067693172    
  9.2000000000000       25.042985182762    
  9.6000000000000       22.598077172639    
  10.000000000000       17.506461170216    
  10.400000000000       17.312957668537    
  10.800000000000       37.591149808396    
  11.200000000000       9.9582290170267    
  11.600000000000       12.450342253724    
  12.000000000000       7.5620097682663    
  12.400000000000       12.629634534090    
  12.800000000000       7.5770840550578    
  13.200000000000       10.109573276452    
  13.600000000000       10.068999619523    
  14.000000000000       4.9903962981866    
  14.400000000000       12.440139580313    
  14.800000000000       0.0000000000000    
  15.200000000000       2.4832477607089    
  15.600000000000       12.455102674854    
  16.000000000000       7.4799111000320    
  16.400000000000       9.9503831496440    
  16.800000000000       7.4877054039960    
  17.200000000000       4.9751915748220    
  17.600000000000       7.4936423848243    
  18.000000000000       17.455480660449    
  18.400000000000       0.0000000000000    
  18.800000000000       0.0000000000000    
  19.200000000000       0.0000000000000    
  19.600000000000       0.0000000000000    
  20.000000000000       0.0000000000000    
ZONE T= "Xw:     39.5300      Yw:     34.0100      Rw:    0.100000      Zwbot:     16.7000      Zwtop:     17.3000       Specie:  1 "
 0.40000000000000       4.9564200594699    
 0.80000000000000       7.4798307445459    
  1.2000000000000       7.4379565902749    
  1.6000000000000       12.436635956067    
  2.0000000000000       10.001296921843    
  2.4000000000000       7.4966433389369    
  2.8000000000000       5.0343146875460    
  3.2000000000000       10.061899331150    
  3.6000000000000       17.533291570756    
  4.0000000000000       25.019895610983    
  4.4000000000000       17.569179274378    
  4.8000000000000       22.525673886771    
  5.2000000000000       4.9654735219654    
  5.6000000000000       7.5223488636658    
  6.0000000000000       25.058744519831    
  6.4000000000000       15.003868784949    
  6.8000000000000       22.444748667236    
  7.2000000000000       14.948886221847    
  7.6000000000000       12.465372135286    
  8.0000000000000       29.932406883153    
  8.4000000000000       32.554923983233    
  8.8000000000000       10.091820536484    
  9.2000000000000       14.962012947174    
  9.6000000000000       10.064042251563    
  10.000000000000       17.609798925375    
  10.400000000000       12.561949760681    
  10.800000000000       10.053433840240    
  11.200000000000       14.983651785769    
  11.600000000000       15.063205954441    
  12.000000000000       32.637526174014    
  12.400000000000       30.050791581455    
  12.800000000000       22.440052592198    
  13.200000000000       19.942834842687    
  13.600000000000       29.817809459497    
  14.000000000000       37.288584698429    
  14.400000000000       49.814544504234    
  14.800000000000       20.041065435432    
  15.200000000000       17.483535808779    
  15.600000000000       12.423968364607    
  16.000000000000       32.364742484616    
  16.400000000000       14.939404731523    
  16.800000000000       12.538597322593    
  17.200000000000       17.570364522144    
  17.600000000000       7.5207498493075    
  18.000000000000       7.5123912252554    
  18.400000000000       5.0258987798510    
  18.800000000000       2.5241835815396    
  19.200000000000       2.4957710706051    
  19.600000000000       5.0177327672820    
  20.000000000000       7.5036452369533    
ZONE T= "Xw:     39.5300      Yw:     34.1100      Rw:    0.100000      Zwbot:     13.5000      Zwtop:     14.0000       Specie:  1 "
 0.40000000000000       0.0000000000000    
 0.80000000000000       0.0000000000000    
  1.2000000000000       0.0000000000000    
  1.6000000000000       0.0000000000000    
  2.0000000000000       0.0000000000000    
  2.4000000000000       0.0000000000000    
  2.8000000000000       0.0000000000000    
  3.2000000000000       0.0000000000000    
  3.6000000000000       7.4456808821180    
  4.0000000000000       0.0000000000000    
  4.4000000000000       0.0000000000000    
  4.8000000000000       2.4818936273727    
  5.2000000000000       0.0000000000000    
  5.6000000000000       0.0000000000000    
  6.0000000000000       2.5093242496353    
  6.4000000000000       7.5279727489058    
  6.8000000000000       17.428289656781    
  7.2000000000000       12.477834610569    
  7.6000000000000       17.582627238530    
  8.0000000000000       12.585379374815    
  8.4000000000000       17.617827170853    
  8.8000000000000       22.563279778848    
  9.2000000000000       5.0520993942942    
  9.6000000000000       9.9915643358493    
  10.000000000000       37.494362532756    
  10.400000000000       22.425708551569    
  10.800000000000       29.990962982193    
  11.200000000000       22.605561070072    
  11.600000000000       32.537190780494    
  12.000000000000       20.031805906335    
  12.400000000000       22.544359167913    
  12.800000000000       32.561187692823    
  13.200000000000       22.534189868564    
  13.600000000000       42.621153127421    
  14.000000000000       32.534673949150    
  14.400000000000       17.537471700243    
  14.800000000000       35.152879323741    
  15.200000000000       49.962373285652    
  15.600000000000       17.488263353454    
  16.000000000000       12.511128161936    
  16.400000000000       17.446419687716    
  16.800000000000       27.532462876596    
  17.200000000000       19.959423076485    
  17.600000000000       17.491798125237    
  18.000000000000       37.434790774568    
  18.400000000000       34.745429523748    
  18.800000000000       19.961175424132    
  19.200000000000       12.504125660859    
  19.600000000000       15.001443241049    
  20.000000000000       2.4772020767183    
ZONE T= "Xw:     39.4300      Yw:     34.0100      Rw:    0.100000      Zwbot:     10.5000      Zwtop:     11.1000       Specie:  1 "
 0.40000000000000       2.4815131936096    
 0.80000000000000       0.0000000000000    
  1.2000000000000       10.003256252219    
  1.6000000000000       24.861348577641    
  2.0000000000000       12.406544990650    
  2.4000000000000       17.531037119016    
  2.8000000000000       22.605015463784    
  3.2000000000000       30.029270648208    
  3.6000000000000       17.465762561318    
  4.0000000000000       32.736073481473    
  4.4000000000000       32.553274622740    
  4.8000000000000       40.128184421596    
  5.2000000000000       39.998779079123    
  5.6000000000000       32.467196085890    
  6.0000000000000       30.011244039097    
  6.4000000000000       29.826082119838    
  6.8000000000000       20.020262284949    
  7.2000000000000       24.980650328377    
  7.6000000000000       32.500827067820    
  8.0000000000000       10.009783421812    
  8.4000000000000       35.222754929605    
  8.8000000000000       9.9284918405111    
  9.2000000000000       15.054993950865    
  9.6000000000000       20.100509799243    
  10.000000000000       30.116990428078    