 TITLE="TECPLOT input file: Breakthrough Curves" 
 VARIABLES="Time" "Concentrations" 
ZONE T= "Xw:     39.9300      Yw:     22.4100      Rw:    0.100000      Zwbot:     16.5000      Zwtop:     17.0000       Specie:  1 "
 0.40000000000000       0.0000000000000    
 0.80000000000000       0.0000000000000    
  1.2000000000000       0.0000000000000    
  1.6000000000000       0.0000000000000    
  2.0000000000000       0.0000000000000    
  2.4000000000000       0.0000000000000    
  2.8000000000000       0.0000000000000    
  3.2000000000000       0.0000000000000    
  3.6000000000000       0.0000000000000    
  4.0000000000000       0.0000000000000    
  4.4000000000000       0.0000000000000    
  4.8000000000000       0.0000000000000    
  5.2000000000000       0.0000000000000    
  5.6000000000000       0.0000000000000    
  6.0000000000000       0.0000000000000    
  6.4000000000000       0.0000000000000    
  6.8000000000000       0.0000000000000    
  7.2000000000000       0.0000000000000    
  7.6000000000000       0.0000000000000    
  8.0000000000000       0.0000000000000    
  8.4000000000000       0.0000000000000    
  8.8000000000000       0.0000000000000    
  9.2000000000000       0.0000000000000    
  9.6000000000000       0.0000000000000    
  10.000000000000       0.0000000000000    
  10.400000000000       0.0000000000000    
  10.800000000000       0.0000000000000    
  11.200000000000       0.0000000000000    
  11.600000000000       0.0000000000000    
  12.000000000000       0.0000000000000    
  12.400000000000       0.0000000000000    
  12.800000000000       0.0000000000000    
  13.200000000000       0.0000000000000    
  13.600000000000       0.0000000000000    
  14.000000000000       0.0000000000000    
  14.400000000000       0.0000000000000    
  14.800000000000       0.0000000000000    
  15.200000000000       10.003224121784    
  15.600000000000       5.0016120608919    
  16.000000000000       0.0000000000000    
  16.400000000000       2.5008060304459    
  16.800000000000       2.5008060304459    
  17.200000000000       2.5008060304459    
  17.600000000000       2.5008060304459    
  18.000000000000       5.0016120608919    
  18.400000000000       10.069023919709    
  18.800000000000       2.5137434868162    
  19.200000000000       2.5207684730384    
  19.600000000000       12.571439203425    
  20.000000000000       5.0349835437463    
ZONE T= "Xw:     39.9300      Yw:     22.4100      Rw:    0.100000      Zwbot:     13.5000      Zwtop:     14.0000       Specie:  1 "
 0.40000000000000       0.0000000000000    
 0.80000000000000       0.0000000000000    
  1.2000000000000       0.0000000000000    
  1.6000000000000       0.0000000000000    
  2.0000000000000       0.0000000000000    
  2.4000000000000       0.0000000000000    
  2.8000000000000       0.0000000000000    
  3.2000000000000       0.0000000000000    
  3.6000000000000       0.0000000000000    
  4.0000000000000       0.0000000000000    
  4.4000000000000       0.0000000000000    
  4.8000000000000       0.0000000000000    
  5.2000000000000       0.0000000000000    
  5.6000000000000       0.0000000000000    
  6.0000000000000       0.0000000000000    
  6.4000000000000       0.0000000000000    
  6.8000000000000       0.0000000000000    
  7.2000000000000       0.0000000000000    
  7.6000000000000       0.0000000000000    
  8.0000000000000       0.0000000000000    
  8.4000000000000       0.0000000000000    
  8.8000000000000       0.0000000000000    
  9.2000000000000       0.0000000000000    
  9.6000000000000       2.4989700078287    
  10.000000000000       0.0000000000000    
  10.400000000000       0.0000000000000    
  10.800000000000       2.4989700078287    
  11.200000000000       7.4969100234861    
  11.600000000000       7.4969100234861    
  12.000000000000       0.0000000000000    
  12.400000000000       0.0000000000000    
  12.800000000000       4.9979400156574    
  13.200000000000       0.0000000000000    
  13.600000000000       0.0000000000000    
  14.000000000000       5.0400286370176    
  14.400000000000       2.5200143185088    
  14.800000000000       2.5168762183570    
  15.200000000000       2.5200143185088    
  15.600000000000       2.5168762183570    
  16.000000000000       4.9956296985704    
  16.400000000000       2.5089969347414    
  16.800000000000       12.522620502795    
  17.200000000000       0.0000000000000    
  17.600000000000       4.9903445107363    
  18.000000000000       7.5170764129208    
  18.400000000000       9.9860608673519    
  18.800000000000       4.9772506102677    
  19.200000000000       7.4309385499416    
  19.600000000000       4.9565084524206    
  20.000000000000       0.0000000000000    
ZONE T= "Xw:     39.9300      Yw:     22.3100      Rw:    0.100000      Zwbot:     10.5000      Zwtop:     11.0000       Specie:  1 "
 0.40000000000000       0.0000000000000    
 0.80000000000000       0.0000000000000    
  1.2000000000000       0.0000000000000    
  1.6000000000000       0.0000000000000    
  2.0000000000000       0.0000000000000    
  2.4000000000000       0.0000000000000    
  2.8000000000000       0.0000000000000    
  3.2000000000000       0.0000000000000    
  3.6000000000000       0.0000000000000    
  4.0000000000000       0.0000000000000    
  4.4000000000000       0.0000000000000    
  4.8000000000000       2.4902464156855    
  5.2000000000000       0.0000000000000    
  5.6000000000000       0.0000000000000    
  6.0000000000000       12.504065594659    
  6.4000000000000       14.951112659772    
  6.8000000000000       2.4902464156855    
  7.2000000000000       14.989339888582    
  7.6000000000000       14.953996225713    
  8.0000000000000       27.473720762908    
  8.4000000000000       17.461100074517    
  8.8000000000000       32.476019842291    
  9.2000000000000       19.907781454541    
  9.6000000000000       44.989770405248    
  10.000000000000       27.458624429120    
  10.400000000000       19.992231582836    
  10.800000000000       30.110061577390    
  11.200000000000       65.094630425179    
  11.600000000000       35.020241113730    
  12.000000000000       35.060938559963    
  12.400000000000       25.021759991224    
  12.800000000000       27.590206279431    
  13.200000000000       60.204754562444    
  13.600000000000       20.080677244712    
  14.000000000000       22.513994964767    
  14.400000000000       25.059341679077    
  14.800000000000       34.877602033608    
  15.200000000000       24.878845688837    
  15.600000000000       4.9580307377484    
  16.000000000000       12.472721636347    
  16.400000000000       4.9629898807807    
  16.800000000000       9.9245972131438    
  17.200000000000       12.471758827565    
  17.600000000000       9.9390047240791    
  18.000000000000       4.9580307377484    
  18.400000000000       7.4502662562435    
  18.800000000000       7.5214638194784    
  19.200000000000       12.511270289698    
  19.600000000000       4.9967618861907    
  20.000000000000       0.0000000000000    
ZONE T= "Xw:     40.0300      Yw:     22.4100      Rw:    0.100000      Zwbot:     7.60000      Zwtop:     8.10000       Specie:  1 "
 0.40000000000000       0.0000000000000    
 0.80000000000000       0.0000000000000    
  1.2000000000000       0.0000000000000    
  1.6000000000000       0.0000000000000    
  2.0000000000000       0.0000000000000    
  2.4000000000000       0.0000000000000    
  2.8000000000000       0.0000000000000    
  3.2000000000000       0.0000000000000    
  3.6000000000000       0.0000000000000    
  4.0000000000000       0.0000000000000    
  4.4000000000000       0.0000000000000    
  4.8000000000000       2.5062670631346    
  5.2000000000000       0.0000000000000    
  5.6000000000000       2.4868771545428    
  6.0000000000000       2.5213944745260    
  6.4000000000000       5.0058469995049    
  6.8000000000000       15.008578378236    
  7.2000000000000       4.9931230766523    
  7.6000000000000       15.127204008645    
  8.0000000000000       27.520607104333    
  8.4000000000000       27.563159547185    
  8.8000000000000       42.576181961612    
  9.2000000000000       32.523357958073    
  9.6000000000000       35.031586866615    
  10.000000000000       34.994710955982    
  10.400000000000       34.976346471195    
  10.800000000000       42.503622469479    
  11.200000000000       29.962698895956    
  11.600000000000       20.047124853496    
  12.000000000000       12.530340551730    
  12.400000000000       47.534645126494    
  12.800000000000       57.631508855485    
  13.200000000000       27.609555974858    
  13.600000000000       37.574465448219    
  14.000000000000       35.016111809487    
  14.400000000000       57.468286926727    
  14.800000000000       17.596606669122    
  15.200000000000       12.544905551535    
  15.600000000000       24.931301858849    
  16.000000000000       25.013545660071    
  16.400000000000       32.507581115347    
  16.800000000000       32.431923261146    
  17.200000000000       9.9890049726793    
  17.600000000000       17.474875370275    
  18.000000000000       17.426200497688    
  18.400000000000       14.966469163322    
  18.800000000000       2.5066721119443    
  19.200000000000       5.0282158595895    
  19.600000000000       7.5497596072346    
  20.000000000000       0.0000000000000    
ZONE T= "Xw:     39.9300      Yw:     22.4100      Rw:    0.100000      Zwbot:     4.50000      Zwtop:     5.00000       Specie:  1 "
 0.40000000000000       0.0000000000000    
 0.80000000000000       0.0000000000000    
  1.2000000000000       0.0000000000000    
  1.6000000000000       0.0000000000000    
  2.0000000000000       0.0000000000000    
  2.4000000000000       0.0000000000000    
  2.8000000000000       0.0000000000000    
  3.2000000000000       0.0000000000000    
  3.6000000000000       0.0000000000000    
  4.0000000000000       0.0000000000000    
  4.4000000000000       0.0000000000000    
  4.8000000000000       2.5028900194351    
  5.2000000000000       17.493844458156    
  5.6000000000000       12.439283459532    
  6.0000000000000       12.569275276380    
  6.4000000000000       27.561567042702    
  6.8000000000000       32.551711939547    
  7.2000000000000       32.528708138096    
  7.6000000000000       52.502055304527    
  8.0000000000000       35.026736294102    
  8.4000000000000       37.544452650578    
  8.8000000000000       27.545579026987    
  9.2000000000000       50.075076082572    
  9.6000000000000       20.015195520453    
  10.000000000000       35.157861010428    
  10.400000000000       57.700633821721    
  10.800000000000       17.483855143236    
  11.200000000000       50.076469870915    
  11.600000000000       34.906592567388    
  12.000000000000       39.897334865549    
  12.400000000000       47.579760984445    
  12.800000000000       49.969994818217    
  13.200000000000       32.419327840709    
  13.600000000000       17.556636476250    
  14.000000000000       14.973429856594    
  14.400000000000       4.9733066664232    
  14.800000000000       15.011419813127    
  15.200000000000       14.937410597159    
  15.600000000000       5.0001910109805    
  16.000000000000       10.083103534915    
  16.400000000000       4.9572884686319    
  16.800000000000       25.017526099095    
  17.200000000000       4.9920239538513    
  17.600000000000       10.055937452666    
  18.000000000000       10.079055596199    
  18.400000000000       5.0274869736324    
  18.800000000000       5.0435414062554    
  19.200000000000       0.0000000000000    
  19.600000000000       2.5183018300989    
  20.000000000000       0.0000000000000    
ZONE T= "Xw:     39.8300      Yw:     28.4100      Rw:    0.100000      Zwbot:     16.5000      Zwtop:     17.0000       Specie:  1 "
 0.40000000000000       0.0000000000000    
 0.80000000000000       0.0000000000000    
  1.2000000000000       0.0000000000000    
  1.6000000000000       0.0000000000000    
  2.0000000000000       0.0000000000000    
  2.4000000000000       0.0000000000000    
  2.8000000000000       0.0000000000000    
  3.2000000000000       0.0000000000000    
  3.6000000000000       5.0275322438910    
  4.0000000000000       7.5412983658365    
  4.4000000000000       0.0000000000000    
  4.8000000000000       4.9056304738142    
  5.2000000000000       17.392937443203    
  5.6000000000000       34.840933916937    
  6.0000000000000       27.378445515137    
  6.4000000000000       22.572352661286    
  6.8000000000000       15.051154665047    
  7.2000000000000       12.582777632764    
  7.6000000000000       15.002182254594    
  8.0000000000000       25.161870640502    
  8.4000000000000       15.057624518122    
  8.8000000000000       12.473593424454    
  9.2000000000000       9.9295246225275    
  9.6000000000000       19.994814068770    
  10.000000000000       40.150485433924    
  10.400000000000       27.612588335389    
  10.800000000000       30.126869426817    
  11.200000000000       25.003444037042    
  11.600000000000       12.474460925715    
  12.000000000000       15.091864262663    
  12.400000000000       20.063601329684    
  12.800000000000       20.082353406343    
  13.200000000000       20.035473619545    
  13.600000000000       17.503588738770    
  14.000000000000       27.546337437076    
  14.400000000000       14.960925044724    
  14.800000000000       22.471807337077    
  15.200000000000       27.517282869972    
  15.600000000000       12.452580348064    
  16.000000000000       25.079773871112    
  16.400000000000       5.0310502128637    
  16.800000000000       32.600352794707    
  17.200000000000       12.521906071559    
  17.600000000000       12.488484199247    
  18.000000000000       14.886213564296    
  18.400000000000       2.5064459077458    
  18.800000000000       10.015820335024    
  19.200000000000       17.479706323795    
  19.600000000000       0.0000000000000    
  20.000000000000       4.9967355107512    
ZONE T= "Xw:     39.9300      Yw:     28.4100      Rw:    0.100000      Zwbot:     13.5000      Zwtop:     14.0000       Specie:  1 "
 0.40000000000000       0.0000000000000    
 0.80000000000000       0.0000000000000    
  1.2000000000000       0.0000000000000    
  1.6000000000000       0.0000000000000    
  2.0000000000000       0.0000000000000    
  2.4000000000000       0.0000000000000    
  2.8000000000000       0.0000000000000    
  3.2000000000000       0.0000000000000    
  3.6000000000000       0.0000000000000    
  4.0000000000000       0.0000000000000    
  4.4000000000000       0.0000000000000    
  4.8000000000000       0.0000000000000    
  5.2000000000000       0.0000000000000    
  5.6000000000000       0.0000000000000    
  6.0000000000000       0.0000000000000    
  6.4000000000000       0.0000000000000    
  6.8000000000000       0.0000000000000    
  7.2000000000000       0.0000000000000    
  7.6000000000000       0.0000000000000    
  8.0000000000000       0.0000000000000    
  8.4000000000000       0.0000000000000    
  8.8000000000000       0.0000000000000    
  9.2000000000000       2.4700705536564    
  9.6000000000000       0.0000000000000    
  10.000000000000       7.4288910489910    
  10.400000000000       0.0000000000000    
  10.800000000000       0.0000000000000    
  11.200000000000       0.0000000000000    
  11.600000000000       0.0000000000000    
  12.000000000000       0.0000000000000    
  12.400000000000       2.4800843243313    
  12.800000000000       0.0000000000000    
  13.200000000000       4.9901468838885    
  13.600000000000       9.9353264149381    
  14.000000000000       0.0000000000000    
  14.400000000000       2.4800843243313    
  14.800000000000       0.0000000000000    
  15.200000000000       0.0000000000000    
  15.600000000000       0.0000000000000    
  16.000000000000       0.0000000000000    
  16.400000000000       0.0000000000000    
  16.800000000000       0.0000000000000    
  17.200000000000       4.9601686486626    
  17.600000000000       0.0000000000000    
  18.000000000000       2.4800843243313    
  18.400000000000       4.9447019415349    
  18.800000000000       4.9447019415349    
  19.200000000000       0.0000000000000    
  19.600000000000       7.5413027196031    
  20.000000000000       0.0000000000000    
ZONE T= "Xw:     39.8300      Yw:     28.4100      Rw:    0.100000      Zwbot:     10.6000      Zwtop:     11.2000       Specie:  1 "
 0.40000000000000       2.5112628740378    
 0.80000000000000       0.0000000000000    
  1.2000000000000       5.0225257480757    
  1.6000000000000       10.031864817864    
  2.0000000000000       0.0000000000000    
  2.4000000000000       0.0000000000000    
  2.8000000000000       7.5550058938640    
  3.2000000000000       24.844821460471    
  3.6000000000000       2.5097674418605    
  4.0000000000000       7.4765880126747    
  4.4000000000000       22.567594151217    
  4.8000000000000       20.015050649588    
  5.2000000000000       22.354871083891    
  5.6000000000000       25.055449755997    
  6.0000000000000       30.073780678500    
  6.4000000000000       32.599866735798    
  6.8000000000000       24.964941711078    
  7.2000000000000       32.558248563130    
  7.6000000000000       29.858727326283    
  8.0000000000000       27.562701163755    
  8.4000000000000       20.019945695051    
  8.8000000000000       35.105165861536    
  9.2000000000000       45.069236877799    
  9.6000000000000       42.571244895109    
  10.000000000000       37.553425656583    
  10.400000000000       25.077162346431    
  10.800000000000       25.169849898079    
  11.200000000000       32.559225193550    
  11.600000000000       20.077187796069    
  12.000000000000       34.914698795540    
  12.400000000000       42.467350257759    
  12.800000000000       20.041231413565    
  13.200000000000       22.284280611029    
  13.600000000000       7.4517713385445    
  14.000000000000       12.385752411420    
  14.400000000000       17.487785763156    
  14.800000000000       17.345047611566    
  15.200000000000       39.720938749302    
  15.600000000000       22.552142891825    
  16.000000000000       20.048426256613    
  16.400000000000       12.431299444299    
  16.800000000000       5.0170929149223    
  17.200000000000       4.9647673111263    
  17.600000000000       9.9642244878460    
  18.000000000000       9.9781825751186    
  18.400000000000       12.456829611466    
  18.800000000000       9.8843333733507    
  19.200000000000       4.9987383782833    
  19.600000000000       7.5269043355437    
  20.000000000000       2.5137675732010    
ZONE T= "Xw:     39.8300      Yw:     28.4100      Rw:    0.100000      Zwbot:     7.60000      Zwtop:     8.30000       Specie:  1 "
 0.40000000000000       0.0000000000000    
 0.80000000000000       0.0000000000000    
  1.2000000000000       0.0000000000000    
  1.6000000000000       2.5269884902741    
  2.0000000000000       0.0000000000000    
  2.4000000000000       2.5269884902741    
  2.8000000000000       10.070789143939    
  3.2000000000000       12.560612817055    
  3.6000000000000       7.5583320314498    
  4.0000000000000       7.5105724787791    
  4.4000000000000       15.064931194334    
  4.8000000000000       7.4935730450799    
  5.2000000000000       7.4579629209893    
  5.6000000000000       22.361968930214    
  6.0000000000000       32.359417674557    
  6.4000000000000       27.666159058319    
  6.8000000000000       27.755246209598    
  7.2000000000000       27.664164968393    
  7.6000000000000       17.626216603821    
  8.0000000000000       9.9823826157245    
  8.4000000000000       55.042038524185    
  8.8000000000000       57.405526391575    
  9.2000000000000       34.880683872555    
  9.6000000000000       37.257050740568    
  10.000000000000       35.090160944289    
  10.400000000000       30.047858179202    
  10.800000000000       35.167952185997    
  11.200000000000       17.579980565870    
  11.600000000000       29.962202346346    
  12.000000000000       25.076223155251    
  12.400000000000       10.057587721307    
  12.800000000000       20.056714526573    
  13.200000000000       49.887609395133    
  13.600000000000       47.492281003412    
  14.000000000000       27.530484947493    
  14.400000000000       25.032102187786    
  14.800000000000       39.838514920659    
  15.200000000000       14.917226748595    
  15.600000000000       32.412855498902    
  16.000000000000       32.418198650618    
  16.400000000000       22.449218661953    
  16.800000000000       19.989497132681    
  17.200000000000       19.999117400998    
  17.600000000000       25.011214583895    
  18.000000000000       17.495745088763    
  18.400000000000       20.066236160350    
  18.800000000000       10.043281810356    
  19.200000000000       7.5526806496743    
  19.600000000000       30.016543827088    
  20.000000000000       9.9643956989694    
ZONE T= "Xw:     39.8300      Yw:     28.5100      Rw:    0.100000      Zwbot:     4.50000      Zwtop:     5.00000       Specie:  1 "
 0.40000000000000       7.5670511474735    
 0.80000000000000       12.536855010685    
  1.2000000000000       2.5113281173540    
  1.6000000000000       12.504154016305    
  2.0000000000000       7.5076627455290    
  2.4000000000000       4.9840404960200    
  2.8000000000000       9.9666850976120    
  3.2000000000000       19.943553519501    
  3.6000000000000       29.869039568730    
  4.0000000000000       17.480490610472    
  4.4000000000000       42.568511572457    
  4.8000000000000       34.846199640780    
  5.2000000000000       37.261682520010    
  5.6000000000000       29.915062411648    
  6.0000000000000       25.024854219007    
  6.4000000000000       62.569458493657    
  6.8000000000000       49.988272561903    
  7.2000000000000       20.062922244037    
  7.6000000000000       17.457346143446    
  8.0000000000000       20.065197858995    
  8.4000000000000       37.417423511826    
  8.8000000000000       25.035178060155    
  9.2000000000000       34.889433724333    
  9.6000000000000       42.570176842786    
  10.000000000000       39.918997778607    
  10.400000000000       9.9381472242108    
  10.800000000000       22.476914044439    
  11.200000000000       9.9858728549584    
  11.600000000000       15.053784436190    
  12.000000000000       12.504589505789    
  12.400000000000       15.029896362577    
  12.800000000000       5.0250498002519    
  13.200000000000       7.4593941659523    
  13.600000000000       0.0000000000000    
  14.000000000000       2.4997691652448    
  14.400000000000       0.0000000000000    
  14.800000000000       0.0000000000000    
  15.200000000000       0.0000000000000    
  15.600000000000       0.0000000000000    
  16.000000000000       0.0000000000000    
  16.400000000000       0.0000000000000    
  16.800000000000       0.0000000000000    
  17.200000000000       0.0000000000000    
  17.600000000000       0.0000000000000    
  18.000000000000       0.0000000000000    
  18.400000000000       0.0000000000000    
  18.800000000000       0.0000000000000    
  19.200000000000       0.0000000000000    
  19.600000000000       0.0000000000000    
  20.000000000000       0.0000000000000    
ZONE T= "Xw:     39.5300      Yw:     34.0100      Rw:    0.100000      Zwbot:     16.7000      Zwtop:     17.3000       Specie:  1 "
 0.40000000000000       0.0000000000000    
 0.80000000000000       0.0000000000000    
  1.2000000000000       0.0000000000000    
  1.6000000000000       0.0000000000000    
  2.0000000000000       4.9770792701828    
  2.4000000000000       0.0000000000000    
  2.8000000000000       10.022469363421    
  3.2000000000000       5.0208160178942    
  3.6000000000000       2.5229332642056    
  4.0000000000000       5.0123524959241    
  4.4000000000000       12.588098482114    
  4.8000000000000       5.0505770935575    
  5.2000000000000       12.362757622412    
  5.6000000000000       22.569758247379    
  6.0000000000000       7.4569957615471    
  6.4000000000000       12.433543568829    
  6.8000000000000       24.961807284939    
  7.2000000000000       17.529470675588    
  7.6000000000000       29.917041883246    
  8.0000000000000       24.882465246973    
  8.4000000000000       22.577858386452    
  8.8000000000000       35.177542443944    
  9.2000000000000       25.078698840470    
  9.6000000000000       27.565034127407    
  10.000000000000       27.444317284313    
  10.400000000000       17.385463621323    
  10.800000000000       37.477331520604    
  11.200000000000       50.032217411899    
  11.600000000000       24.929262632891    
  12.000000000000       15.046869134656    
  12.400000000000       20.005769311683    
  12.800000000000       59.775447271059    
  13.200000000000       24.851320895322    
  13.600000000000       12.405542289199    
  14.000000000000       4.9572246503148    
  14.400000000000       25.023309254098    
  14.800000000000       24.919582074657    
  15.200000000000       25.044218860658    
  15.600000000000       20.015903890291    
  16.000000000000       9.9303836895349    
  16.400000000000       7.4477877671512    
  16.800000000000       12.546485740135    
  17.200000000000       17.465302418343    
  17.600000000000       9.9624387000319    
  18.000000000000       7.4448090627941    
  18.400000000000       4.9959149115320    
  18.800000000000       4.9858653105198    
  19.200000000000       7.4428708811543    
  19.600000000000       5.0079654113174    
  20.000000000000       0.0000000000000    
ZONE T= "Xw:     39.5300      Yw:     34.1100      Rw:    0.100000      Zwbot:     13.5000      Zwtop:     14.0000       Specie:  1 "
 0.40000000000000       0.0000000000000    
 0.80000000000000       0.0000000000000    
  1.2000000000000       0.0000000000000    
  1.6000000000000       0.0000000000000    
  2.0000000000000       0.0000000000000    
  2.4000000000000       0.0000000000000    
  2.8000000000000       0.0000000000000    
  3.2000000000000       2.5114750695410    
  3.6000000000000       2.5114750695410    
  4.0000000000000       0.0000000000000    
  4.4000000000000       0.0000000000000    
  4.8000000000000       2.5140624759663    
  5.2000000000000       2.4969495058219    
  5.6000000000000       12.518973469398    
  6.0000000000000       5.0084245753629    
  6.4000000000000       5.0084245753629    
  6.8000000000000       2.5114750695410    
  7.2000000000000       5.0067633163105    
  7.6000000000000       10.016114039046    
  8.0000000000000       10.048487684589    
  8.4000000000000       7.5208257922769    
  8.8000000000000       4.9942570475922    
  9.2000000000000       12.493927612581    
  9.6000000000000       20.096288721198    
  10.000000000000       27.566063315952    
  10.400000000000       30.154460417438    
  10.800000000000       40.121867890065    
  11.200000000000       25.043481268353    
  11.600000000000       47.632562023695    
  12.000000000000       22.537003764715    
  12.400000000000       14.916275984539    
  12.800000000000       17.446593459639    
  13.200000000000       12.538814376552    
  13.600000000000       12.426859574083    
  14.000000000000       17.473985217090    
  14.400000000000       9.9119763231648    
  14.800000000000       14.986994186004    
  15.200000000000       12.382752424523    
  15.600000000000       5.0474577145600    
  16.000000000000       20.102675055384    
  16.400000000000       17.405142841184    
  16.800000000000       7.5884092714196    
  17.200000000000       19.846080557329    
  17.600000000000       19.888983741862    
  18.000000000000       17.413812558021    
  18.400000000000       27.466006824251    
  18.800000000000       34.935637829330    
  19.200000000000       27.320725421778    
  19.600000000000       9.9832767624858    
  20.000000000000       7.4630468395734    
ZONE T= "Xw:     39.4300      Yw:     34.0100      Rw:    0.100000      Zwbot:     10.5000      Zwtop:     11.1000       Specie:  1 "
 0.40000000000000       92.370003171156    
 0.80000000000000       12.438286049086    
  1.2000000000000       17.497626977752    
  1.6000000000000       17.510568883959    
  2.0000000000000       12.464293749352    
  2.4000000000000       22.424536423299    
  2.8000000000000       19.911109996378    
  3.2000000000000       49.871988185189    
  3.6000000000000       52.453927381446    
  4.0000000000000       40.050057615610    
  4.4000000000000       12.505496606633    
  4.8000000000000       12.504755012406    
  5.2000000000000       42.558443042008    
  5.6000000000000       29.992960627215    
  6.0000000000000       34.987948807049    
  6.4000000000000       64.928124523632    
  6.8000000000000       47.461424556023    
  7.2000000000000       47.684795745167    
  7.6000000000000       44.941391754023    
  8.0000000000000       57.392913535574    
  8.4000000000000       27.589939495013    
  8.8000000000000       27.401890888873    
  9.2000000000000       27.544915492945    
  9.6000000000000       22.542122644904    
  10.000000000000       30.130126162730    