 TITLE="TECPLOT input file: Breakthrough Curves" 
 VARIABLES="Time" "Concentrations" 
ZONE T= "Xw:     39.9300      Yw:     22.4100      Rw:    0.100000      Zwbot:     16.5000      Zwtop:     17.0000       Specie:  1 "
  0.0000000000000       0.0000000000000    
  0.0000000000000       0.0000000000000    
  0.0000000000000       0.0000000000000    
  0.0000000000000       0.0000000000000    
  0.0000000000000       0.0000000000000    
  0.0000000000000       0.0000000000000    
  0.0000000000000       0.0000000000000    
  0.0000000000000       0.0000000000000    
  0.0000000000000       0.0000000000000    
  0.0000000000000       0.0000000000000    
  0.0000000000000       0.0000000000000    
  0.0000000000000       0.0000000000000    
  0.0000000000000       0.0000000000000    
  0.0000000000000       0.0000000000000    
  0.0000000000000       0.0000000000000    
  0.0000000000000       0.0000000000000    
  0.0000000000000       0.0000000000000    
  0.0000000000000       0.0000000000000    
  0.0000000000000       0.0000000000000    
  0.0000000000000       0.0000000000000    
  0.0000000000000       0.0000000000000    
  0.0000000000000       0.0000000000000    
  0.0000000000000       0.0000000000000    
  0.0000000000000       0.0000000000000    
  0.0000000000000       0.0000000000000    
  0.0000000000000       0.0000000000000    
  0.0000000000000       0.0000000000000    
  0.0000000000000       0.0000000000000    
  0.0000000000000       0.0000000000000    
  0.0000000000000       0.0000000000000    
  0.0000000000000       0.0000000000000    
  0.0000000000000       0.0000000000000    
  0.0000000000000       0.0000000000000    
  0.0000000000000       0.0000000000000    
  0.0000000000000       0.0000000000000    
  0.0000000000000       0.0000000000000    
  0.0000000000000       0.0000000000000    
  0.0000000000000       0.0000000000000    
  0.0000000000000       0.0000000000000    
  0.0000000000000       0.0000000000000    
  0.0000000000000       0.0000000000000    
  0.0000000000000       0.0000000000000    
  0.0000000000000       0.0000000000000    
  0.0000000000000       0.0000000000000    
  0.0000000000000       0.0000000000000    
  0.0000000000000       0.0000000000000    
  0.0000000000000       0.0000000000000    
  0.0000000000000       0.0000000000000    
  0.0000000000000       0.0000000000000    
  0.0000000000000       0.0000000000000    
ZONE T= "Xw:     39.9300      Yw:     22.4100      Rw:    0.100000      Zwbot:     13.5000      Zwtop:     14.0000       Specie:  1 "
 0.40000000000000       0.0000000000000    
 0.80000000000000       0.0000000000000    
  1.2000000000000       0.0000000000000    
  1.6000000000000       0.0000000000000    
  2.0000000000000       0.0000000000000    
  2.4000000000000       0.0000000000000    
  2.8000000000000       0.0000000000000    
  3.2000000000000       0.0000000000000    
  3.6000000000000       0.0000000000000    
  4.0000000000000       0.0000000000000    
  4.4000000000000       0.0000000000000    
  4.8000000000000       0.0000000000000    
  5.2000000000000       0.0000000000000    
  5.6000000000000       0.0000000000000    
  6.0000000000000       0.0000000000000    
  6.4000000000000       0.0000000000000    
  6.8000000000000       0.0000000000000    
  7.2000000000000       0.0000000000000    
  7.6000000000000       0.0000000000000    
  8.0000000000000       0.0000000000000    
  8.4000000000000       0.0000000000000    
  8.8000000000000       0.0000000000000    
  9.2000000000000       0.0000000000000    
  9.6000000000000       0.0000000000000    
  10.000000000000       0.0000000000000    
  10.400000000000       0.0000000000000    
  10.800000000000       0.0000000000000    
  11.200000000000       0.0000000000000    
  11.600000000000       0.0000000000000    
  12.000000000000       0.0000000000000    
  12.400000000000       0.0000000000000    
  12.800000000000       0.0000000000000    
  13.200000000000       0.0000000000000    
  13.600000000000       0.0000000000000    
  14.000000000000       2.5276815448562    
  14.400000000000       0.0000000000000    
  14.800000000000       2.4996368612882    
  15.200000000000       9.9985474451530    
  15.600000000000       2.4996368612882    
  16.000000000000       0.0000000000000    
  16.400000000000       0.0000000000000    
  16.800000000000       0.0000000000000    
  17.200000000000       4.9847071696093    
  17.600000000000       7.4770607544140    
  18.000000000000       14.930549322761    
  18.400000000000       9.9536995485071    
  18.800000000000       4.9689923788977    
  19.200000000000       7.4770607544140    
  19.600000000000       0.0000000000000    
  20.000000000000       0.0000000000000    
ZONE T= "Xw:     39.9300      Yw:     22.3100      Rw:    0.100000      Zwbot:     10.5000      Zwtop:     11.0000       Specie:  1 "
 0.40000000000000       0.0000000000000    
 0.80000000000000       0.0000000000000    
  1.2000000000000       0.0000000000000    
  1.6000000000000       0.0000000000000    
  2.0000000000000       0.0000000000000    
  2.4000000000000       0.0000000000000    
  2.8000000000000       0.0000000000000    
  3.2000000000000       0.0000000000000    
  3.6000000000000       0.0000000000000    
  4.0000000000000       0.0000000000000    
  4.4000000000000       0.0000000000000    
  4.8000000000000       0.0000000000000    
  5.2000000000000       7.5401870766649    
  5.6000000000000       2.5087338665157    
  6.0000000000000       5.0301180348186    
  6.4000000000000       7.5107349838465    
  6.8000000000000       15.120322506995    
  7.2000000000000       19.979159219820    
  7.6000000000000       14.995716198249    
  8.0000000000000       12.453957856927    
  8.4000000000000       20.050927165575    
  8.8000000000000       19.951635338091    
  9.2000000000000       24.878375355330    
  9.6000000000000       19.959613736946    
  10.000000000000       42.421887325433    
  10.400000000000       37.535394346552    
  10.800000000000       15.072724357559    
  11.200000000000       32.415915830532    
  11.600000000000       40.032439269559    
  12.000000000000       50.085963778082    
  12.400000000000       19.912696785733    
  12.800000000000       7.4545427593120    
  13.200000000000       15.054830711466    
  13.600000000000       17.480975963048    
  14.000000000000       12.473387384645    
  14.400000000000       2.5172873267809    
  14.800000000000       7.4402389936778    
  15.200000000000       0.0000000000000    
  15.600000000000       0.0000000000000    
  16.000000000000       7.4992310491765    
  16.400000000000       2.4754302669390    
  16.800000000000       7.5105210902653    
  17.200000000000       10.065529102035    
  17.600000000000       10.027535586601    
  18.000000000000       7.5380967079579    
  18.400000000000       12.546014637793    
  18.800000000000       7.5202290056993    
  19.200000000000       12.508412056215    
  19.600000000000       7.5392062206621    
  20.000000000000       0.0000000000000    
ZONE T= "Xw:     40.0300      Yw:     22.4100      Rw:    0.100000      Zwbot:     7.60000      Zwtop:     8.10000       Specie:  1 "
 0.40000000000000       0.0000000000000    
 0.80000000000000       0.0000000000000    
  1.2000000000000       0.0000000000000    
  1.6000000000000       0.0000000000000    
  2.0000000000000       0.0000000000000    
  2.4000000000000       0.0000000000000    
  2.8000000000000       0.0000000000000    
  3.2000000000000       0.0000000000000    
  3.6000000000000       0.0000000000000    
  4.0000000000000       0.0000000000000    
  4.4000000000000       0.0000000000000    
  4.8000000000000       10.035744862591    
  5.2000000000000       2.4969776306936    
  5.6000000000000       7.5238349662680    
  6.0000000000000       14.930007205510    
  6.4000000000000       7.4378427450410    
  6.8000000000000       2.5196745233737    
  7.2000000000000       9.9866903638458    
  7.6000000000000       9.9882392422555    
  8.0000000000000       15.013533197709    
  8.4000000000000       42.411586604801    
  8.8000000000000       17.473884360827    
  9.2000000000000       32.529729145529    
  9.6000000000000       57.603889143065    
  10.000000000000       32.452244738912    
  10.400000000000       32.533250323384    
  10.800000000000       30.023335746017    
  11.200000000000       55.182196852616    
  11.600000000000       45.186818590983    
  12.000000000000       37.596375151213    
  12.400000000000       32.559850797407    
  12.800000000000       62.522652996652    
  13.200000000000       44.966357618666    
  13.600000000000       27.510086511060    
  14.000000000000       27.491839864505    
  14.400000000000       32.451498141338    
  14.800000000000       24.976108782229    
  15.200000000000       12.579496649193    
  15.600000000000       20.015891550403    
  16.000000000000       12.513376957621    
  16.400000000000       12.523100910232    
  16.800000000000       20.066937195405    
  17.200000000000       17.510162400662    
  17.600000000000       7.5450943098438    
  18.000000000000       2.5142203802663    
  18.400000000000       5.0037358807237    
  18.800000000000       4.9508605338780    
  19.200000000000       0.0000000000000    
  19.600000000000       2.5159217490220    
  20.000000000000       0.0000000000000    
ZONE T= "Xw:     39.9300      Yw:     22.4100      Rw:    0.100000      Zwbot:     4.50000      Zwtop:     5.00000       Specie:  1 "
 0.40000000000000       0.0000000000000    
 0.80000000000000       0.0000000000000    
  1.2000000000000       0.0000000000000    
  1.6000000000000       0.0000000000000    
  2.0000000000000       0.0000000000000    
  2.4000000000000       0.0000000000000    
  2.8000000000000       0.0000000000000    
  3.2000000000000       0.0000000000000    
  3.6000000000000       0.0000000000000    
  4.0000000000000       0.0000000000000    
  4.4000000000000       0.0000000000000    
  4.8000000000000       2.4949411524839    
  5.2000000000000       2.5179853076309    
  5.6000000000000       17.485885413569    
  6.0000000000000       29.978461838957    
  6.4000000000000       32.431266592003    
  6.8000000000000       24.910019078188    
  7.2000000000000       27.507410846335    
  7.6000000000000       39.848058938605    
  8.0000000000000       42.413450800413    
  8.4000000000000       22.426567440300    
  8.8000000000000       12.548936593674    
  9.2000000000000       14.960775122800    
  9.6000000000000       22.473167386157    
  10.000000000000       44.835084911520    
  10.400000000000       54.911150747042    
  10.800000000000       40.038964296093    
  11.200000000000       62.312654336449    
  11.600000000000       59.834164748342    
  12.000000000000       54.832869902326    
  12.400000000000       44.774035641232    
  12.800000000000       32.400449028444    
  13.200000000000       57.428605326538    
  13.600000000000       32.484796963939    
  14.000000000000       17.481473561387    
  14.400000000000       29.905540583837    
  14.800000000000       17.504660481532    
  15.200000000000       30.049965463696    
  15.600000000000       12.467133682477    
  16.000000000000       17.540127653438    
  16.400000000000       12.580131747663    
  16.800000000000       9.9715659492095    
  17.200000000000       17.382052869491    
  17.600000000000       9.9780927194798    
  18.000000000000       4.9561777940718    
  18.400000000000       7.4716907158247    
  18.800000000000       2.5095924508010    
  19.200000000000       0.0000000000000    
  19.600000000000       4.9913798533495    
  20.000000000000       0.0000000000000    
ZONE T= "Xw:     39.8300      Yw:     28.4100      Rw:    0.100000      Zwbot:     16.5000      Zwtop:     17.0000       Specie:  1 "
 0.40000000000000       0.0000000000000    
 0.80000000000000       0.0000000000000    
  1.2000000000000       0.0000000000000    
  1.6000000000000       0.0000000000000    
  2.0000000000000       0.0000000000000    
  2.4000000000000       0.0000000000000    
  2.8000000000000       0.0000000000000    
  3.2000000000000       0.0000000000000    
  3.6000000000000       0.0000000000000    
  4.0000000000000       10.024012677962    
  4.4000000000000       0.0000000000000    
  4.8000000000000       2.5260700347580    
  5.2000000000000       0.0000000000000    
  5.6000000000000       5.0521400695161    
  6.0000000000000       12.439784854643    
  6.4000000000000       10.052393625056    
  6.8000000000000       17.490236855994    
  7.2000000000000       7.4608138082437    
  7.6000000000000       0.0000000000000    
  8.0000000000000       25.117695267320    
  8.4000000000000       7.5474945912413    
  8.8000000000000       7.4627562660155    
  9.2000000000000       7.5670225495820    
  9.6000000000000       2.4729648334122    
  10.000000000000       7.4188945002367    
  10.400000000000       7.4837738565398    
  10.800000000000       9.9692804022982    
  11.200000000000       20.032057313125    
  11.600000000000       22.505858293836    
  12.000000000000       17.378367473393    
  12.400000000000       12.403124139187    
  12.800000000000       25.052057040443    
  13.200000000000       9.9705902624304    
  13.600000000000       24.981757862406    
  14.000000000000       37.406773945231    
  14.400000000000       7.4164352749179    
  14.800000000000       22.498271885452    
  15.200000000000       7.4921322252123    
  15.600000000000       9.9870373790718    
  16.000000000000       17.505792055235    
  16.400000000000       27.606206250675    
  16.800000000000       10.064113038422    
  17.200000000000       25.066792309831    
  17.600000000000       20.079562262541    
  18.000000000000       5.0527085153996    
  18.400000000000       10.048021061951    
  18.800000000000       20.155123295262    
  19.200000000000       12.517218628106    
  19.600000000000       15.157270420339    
  20.000000000000       12.647877370584    
ZONE T= "Xw:     39.9300      Yw:     28.4100      Rw:    0.100000      Zwbot:     13.5000      Zwtop:     14.0000       Specie:  1 "
 0.40000000000000       0.0000000000000    
 0.80000000000000       0.0000000000000    
  1.2000000000000       0.0000000000000    
  1.6000000000000       0.0000000000000    
  2.0000000000000       0.0000000000000    
  2.4000000000000       0.0000000000000    
  2.8000000000000       0.0000000000000    
  3.2000000000000       0.0000000000000    
  3.6000000000000       0.0000000000000    
  4.0000000000000       0.0000000000000    
  4.4000000000000       0.0000000000000    
  4.8000000000000       0.0000000000000    
  5.2000000000000       0.0000000000000    
  5.6000000000000       0.0000000000000    
  6.0000000000000       0.0000000000000    
  6.4000000000000       0.0000000000000    
  6.8000000000000       0.0000000000000    
  7.2000000000000       0.0000000000000    
  7.6000000000000       0.0000000000000    
  8.0000000000000       0.0000000000000    
  8.4000000000000       0.0000000000000    
  8.8000000000000       0.0000000000000    
  9.2000000000000       0.0000000000000    
  9.6000000000000       2.4808221165893    
  10.000000000000       9.9232884663574    
  10.400000000000       0.0000000000000    
  10.800000000000       2.4808221165893    
  11.200000000000       0.0000000000000    
  11.600000000000       0.0000000000000    
  12.000000000000       0.0000000000000    
  12.400000000000       0.0000000000000    
  12.800000000000       0.0000000000000    
  13.200000000000       4.9487409126163    
  13.600000000000       2.4799283661023    
  14.000000000000       4.9598567322047    
  14.400000000000       7.4342271885128    
  14.800000000000       7.5445881274906    
  15.200000000000       0.0000000000000    
  15.600000000000       0.0000000000000    
  16.000000000000       0.0000000000000    
  16.400000000000       0.0000000000000    
  16.800000000000       2.5354194056376    
  17.200000000000       9.8930905976814    
  17.600000000000       2.5179853076309    
  18.000000000000       10.071941230524    
  18.400000000000       2.5179853076309    
  18.800000000000       0.0000000000000    
  19.200000000000       0.0000000000000    
  19.600000000000       2.5048216122720    
  20.000000000000       0.0000000000000    
ZONE T= "Xw:     39.8300      Yw:     28.4100      Rw:    0.100000      Zwbot:     10.6000      Zwtop:     11.2000       Specie:  1 "
 0.40000000000000       2.5095994208740    
 0.80000000000000       2.5095994208740    
  1.2000000000000       2.5095994208740    
  1.6000000000000       7.4727351733038    
  2.0000000000000       12.512464734984    
  2.4000000000000       4.9931937763792    
  2.8000000000000       9.9158345302706    
  3.2000000000000       2.4740670514881    
  3.6000000000000       2.5041250754376    
  4.0000000000000       9.8814664571687    
  4.4000000000000       22.222642715675    
  4.8000000000000       4.9607909805656    
  5.2000000000000       0.0000000000000    
  5.6000000000000       27.256203045790    
  6.0000000000000       35.115199617710    
  6.4000000000000       19.992138285911    
  6.8000000000000       22.527890486400    
  7.2000000000000       14.980057579862    
  7.6000000000000       19.915350839143    
  8.0000000000000       29.877374617122    
  8.4000000000000       42.593149164964    
  8.8000000000000       22.477812639548    
  9.2000000000000       42.472078325098    
  9.6000000000000       17.517977929707    
  10.000000000000       22.297048442587    
  10.400000000000       42.379448578737    
  10.800000000000       22.479694428022    
  11.200000000000       27.472028048841    
  11.600000000000       32.529389123056    
  12.000000000000       27.650662638347    
  12.400000000000       24.903545413033    
  12.800000000000       52.551669893859    
  13.200000000000       47.421644815292    
  13.600000000000       34.957103868151    
  14.000000000000       30.125853755995    
  14.400000000000       12.567161584766    
  14.800000000000       27.623075690385    
  15.200000000000       32.546293209534    
  15.600000000000       40.057151737918    
  16.000000000000       15.075742836172    
  16.400000000000       7.4284891460825    
  16.800000000000       10.105443638083    
  17.200000000000       22.433661906046    
  17.600000000000       0.0000000000000    
  18.000000000000       2.5223611805567    
  18.400000000000       2.5211127308821    
  18.800000000000       0.0000000000000    
  19.200000000000       12.481220879262    
  19.600000000000       5.0447640619735    
  20.000000000000       2.5022211236632    
ZONE T= "Xw:     39.8300      Yw:     28.4100      Rw:    0.100000      Zwbot:     7.60000      Zwtop:     8.30000       Specie:  1 "
 0.40000000000000       0.0000000000000    
 0.80000000000000       0.0000000000000    
  1.2000000000000       0.0000000000000    
  1.6000000000000       0.0000000000000    
  2.0000000000000       0.0000000000000    
  2.4000000000000       5.0232631842869    
  2.8000000000000       2.5116315921434    
  3.2000000000000       0.0000000000000    
  3.6000000000000       2.5343884929225    
  4.0000000000000       0.0000000000000    
  4.4000000000000       20.087023281531    
  4.8000000000000       7.4240945851352    
  5.2000000000000       0.0000000000000    
  5.6000000000000       5.0505759980282    
  6.0000000000000       2.4707357639135    
  6.4000000000000       4.9773581483714    
  6.8000000000000       12.376195657831    
  7.2000000000000       22.508518430638    
  7.6000000000000       17.650708908763    
  8.0000000000000       25.051998026995    
  8.4000000000000       14.953355314997    
  8.8000000000000       27.475719393862    
  9.2000000000000       35.069494192266    
  9.6000000000000       37.501548496885    
  10.000000000000       27.560181603086    
  10.400000000000       19.947017226235    
  10.800000000000       47.289031856090    
  11.200000000000       35.060992831902    
  11.600000000000       10.019122488103    
  12.000000000000       32.311543533273    
  12.400000000000       17.385942162045    
  12.800000000000       30.078498508790    
  13.200000000000       17.404559949678    
  13.600000000000       32.468288296971    
  14.000000000000       27.341973639508    
  14.400000000000       29.856677713058    
  14.800000000000       34.805143257797    
  15.200000000000       32.362312942532    
  15.600000000000       27.455004870156    
  16.000000000000       30.092375814673    
  16.400000000000       47.375658364112    
  16.800000000000       34.862146472852    
  17.200000000000       39.806345686353    
  17.600000000000       72.115604758589    
  18.000000000000       47.602315549716    
  18.400000000000       24.910863131237    
  18.800000000000       22.317544561739    
  19.200000000000       24.886261928230    
  19.600000000000       10.069296660817    
  20.000000000000       7.5914974841127    
ZONE T= "Xw:     39.8300      Yw:     28.5100      Rw:    0.100000      Zwbot:     4.50000      Zwtop:     5.00000       Specie:  1 "
 0.40000000000000       0.0000000000000    
 0.80000000000000       7.4373154113790    
  1.2000000000000       5.0291061177927    
  1.6000000000000       12.569882993839    
  2.0000000000000       10.074639134807    
  2.4000000000000       12.613478487833    
  2.8000000000000       20.214564488616    
  3.2000000000000       9.9569511420605    
  3.6000000000000       27.653464490670    
  4.0000000000000       35.209323074321    
  4.4000000000000       22.654200576082    
  4.8000000000000       37.864511206075    
  5.2000000000000       40.108615136214    
  5.6000000000000       37.740538914869    
  6.0000000000000       47.789291012416    
  6.4000000000000       40.145108208135    
  6.8000000000000       47.894565925041    
  7.2000000000000       54.991552161168    
  7.6000000000000       60.178411562182    
  8.0000000000000       47.544181180406    
  8.4000000000000       42.633162803825    
  8.8000000000000       9.9901526156818    
  9.2000000000000       24.963796549794    
  9.6000000000000       19.969026719616    
  10.000000000000       7.5545901356637    
  10.400000000000       15.021709569031    
  10.800000000000       5.0479117502362    
  11.200000000000       17.503392822320    
  11.600000000000       24.965351109698    
  12.000000000000       17.503882166135    
  12.400000000000       10.067548394355    
  12.800000000000       7.5205093300369    
  13.200000000000       2.5145416463128    
  13.600000000000       10.016589772351    
  14.000000000000       0.0000000000000    
  14.400000000000       2.4729648334122    
  14.800000000000       2.5432184788726    
  15.200000000000       0.0000000000000    
  15.600000000000       0.0000000000000    
  16.000000000000       0.0000000000000    
  16.400000000000       2.5258873758811    
  16.800000000000       7.5655695030761    
  17.200000000000       10.091456878957    
  17.600000000000       0.0000000000000    
  18.000000000000       0.0000000000000    
  18.400000000000       0.0000000000000    
  18.800000000000       0.0000000000000    
  19.200000000000       0.0000000000000    
  19.600000000000       0.0000000000000    
  20.000000000000       2.5022747880494    
ZONE T= "Xw:     39.5300      Yw:     34.0100      Rw:    0.100000      Zwbot:     16.7000      Zwtop:     17.3000       Specie:  1 "
 0.40000000000000       74.145376844763    
 0.80000000000000       4.9557429323412    
  1.2000000000000       5.0061936769542    
  1.6000000000000       9.9287428627660    
  2.0000000000000       4.9570873756094    
  2.4000000000000       9.9019930026121    
  2.8000000000000       2.4930038096174    
  3.2000000000000       15.041905065175    
  3.6000000000000       0.0000000000000    
  4.0000000000000       0.0000000000000    
  4.4000000000000       17.432591437166    
  4.8000000000000       12.477746329305    
  5.2000000000000       17.465356735803    
  5.6000000000000       7.4621563951451    
  6.0000000000000       12.455139704903    
  6.4000000000000       4.9911385062675    
  6.8000000000000       10.050533137321    
  7.2000000000000       5.0100654275870    
  7.6000000000000       2.4785436878047    
  8.0000000000000       2.5304803826033    
  8.4000000000000       7.5142614594719    
  8.8000000000000       7.5072250491413    
  9.2000000000000       9.9517743627144    
  9.6000000000000       12.500450527293    
  10.000000000000       17.520888680317    
  10.400000000000       15.016116840963    
  10.800000000000       22.485917940795    
  11.200000000000       27.544372111254    
  11.600000000000       22.476695293779    
  12.000000000000       32.567183124010    
  12.400000000000       22.517072419137    
  12.800000000000       24.818282708831    
  13.200000000000       19.944506193156    
  13.600000000000       27.442434302356    
  14.000000000000       15.030654210863    
  14.400000000000       39.930814099614    
  14.800000000000       20.011538367885    
  15.200000000000       12.473071310797    
  15.600000000000       22.461478487054    
  16.000000000000       12.530222107557    
  16.400000000000       30.125779924231    
  16.800000000000       17.529342093194    
  17.200000000000       4.9944998359806    
  17.600000000000       10.078141092917    
  18.000000000000       7.4944397071809    
  18.400000000000       25.092875154851    
  18.800000000000       7.5268764803298    
  19.200000000000       14.970926068360    
  19.600000000000       5.0394405640184    
  20.000000000000       2.4680309067380    
ZONE T= "Xw:     39.5300      Yw:     34.1100      Rw:    0.100000      Zwbot:     13.5000      Zwtop:     14.0000       Specie:  1 "
 0.40000000000000       0.0000000000000    
 0.80000000000000       0.0000000000000    
  1.2000000000000       0.0000000000000    
  1.6000000000000       0.0000000000000    
  2.0000000000000       2.4967220728602    
  2.4000000000000       0.0000000000000    
  2.8000000000000       0.0000000000000    
  3.2000000000000       2.4696306942185    
  3.6000000000000       7.4359834612972    
  4.0000000000000       2.4696306942185    
  4.4000000000000       4.9570873756094    
  4.8000000000000       9.9583228001965    
  5.2000000000000       4.9803659583235    
  5.6000000000000       0.0000000000000    
  6.0000000000000       7.5207452320267    
  6.4000000000000       22.418373372717    
  6.8000000000000       14.976970726203    
  7.2000000000000       4.9720499043047    
  7.6000000000000       4.9883226379430    
  8.0000000000000       9.9263316841233    
  8.4000000000000       2.4901829791617    
  8.8000000000000       0.0000000000000    
  9.2000000000000       2.4759363316841    
  9.6000000000000       0.0000000000000    
  10.000000000000       4.9518726633682    
  10.400000000000       0.0000000000000    
  10.800000000000       2.5281121388423    
  11.200000000000       20.084197008747    
  11.600000000000       15.006132324045    
  12.000000000000       9.9743362738839    
  12.400000000000       12.404381469376    
  12.800000000000       9.9269458728854    
  13.200000000000       4.9962040228260    
  13.600000000000       19.912396509249    
  14.000000000000       12.434630079483    
  14.400000000000       20.094323405282    
  14.800000000000       24.978699750822    
  15.200000000000       14.998767558708    
  15.600000000000       7.4812952633412    
  16.000000000000       7.5030368873170    
  16.400000000000       5.0045268424448    
  16.800000000000       22.578832357833    
  17.200000000000       17.492189719703    
  17.600000000000       22.467826051430    
  18.000000000000       5.0179203628300    
  18.400000000000       10.028842333862    
  18.800000000000       15.076157812343    
  19.200000000000       7.5074687044323    
  19.600000000000       12.542121717432    
  20.000000000000       0.0000000000000    
ZONE T= "Xw:     39.4300      Yw:     34.0100      Rw:    0.100000      Zwbot:     10.5000      Zwtop:     11.1000       Specie:  1 "
 0.40000000000000       57.600641639939    
 0.80000000000000       7.5168537791968    
  1.2000000000000       27.563072405480    
  1.6000000000000       22.643038014210    
  2.0000000000000       30.060737742869    
  2.4000000000000       25.005693802065    
  2.8000000000000       20.054088719448    
  3.2000000000000       15.049605628949    
  3.6000000000000       20.179221368823    
  4.0000000000000       5.0320029369342    
  4.4000000000000       10.007765105990    
  4.8000000000000       15.026263972785    
  5.2000000000000       27.562237958503    
  5.6000000000000       12.502871969809    
  6.0000000000000       22.552915700383    
  6.4000000000000       19.979282742017    
  6.8000000000000       17.592059736269    
  7.2000000000000       9.9891433908410    
  7.6000000000000       25.037291837679    
  8.0000000000000       34.784219186322    
  8.4000000000000       32.357634696516    
  8.8000000000000       20.050674222023    
  9.2000000000000       27.542567647720    
  9.6000000000000       47.102193773494    
  10.000000000000       37.449744363267    