 TITLE="TECPLOT input file: Breakthrough Curves" 
 VARIABLES="Time" "Concentrations" 
ZONE T= "Xw:     39.9300      Yw:     22.4100      Rw:    0.100000      Zwbot:     16.5000      Zwtop:     17.0000       Specie:  1 "
 0.40000000000000       0.0000000000000    
 0.80000000000000       0.0000000000000    
  1.2000000000000       0.0000000000000    
  1.6000000000000       0.0000000000000    
  2.0000000000000       0.0000000000000    
  2.4000000000000       0.0000000000000    
  2.8000000000000       0.0000000000000    
  3.2000000000000       0.0000000000000    
  3.6000000000000       0.0000000000000    
  4.0000000000000       0.0000000000000    
  4.4000000000000       0.0000000000000    
  4.8000000000000       0.0000000000000    
  5.2000000000000       0.0000000000000    
  5.6000000000000       0.0000000000000    
  6.0000000000000       0.0000000000000    
  6.4000000000000       0.0000000000000    
  6.8000000000000       0.0000000000000    
  7.2000000000000       0.0000000000000    
  7.6000000000000       0.0000000000000    
  8.0000000000000       0.0000000000000    
  8.4000000000000       0.0000000000000    
  8.8000000000000       0.0000000000000    
  9.2000000000000       0.0000000000000    
  9.6000000000000       0.0000000000000    
  10.000000000000       0.0000000000000    
  10.400000000000       0.0000000000000    
  10.800000000000       0.0000000000000    
  11.200000000000       0.0000000000000    
  11.600000000000       0.0000000000000    
  12.000000000000       0.0000000000000    
  12.400000000000       0.0000000000000    
  12.800000000000       0.0000000000000    
  13.200000000000       0.0000000000000    
  13.600000000000       0.0000000000000    
  14.000000000000       0.0000000000000    
  14.400000000000       0.0000000000000    
  14.800000000000       0.0000000000000    
  15.200000000000       0.0000000000000    
  15.600000000000       0.0000000000000    
  16.000000000000       0.0000000000000    
  16.400000000000       2.5109432068025    
  16.800000000000       0.0000000000000    
  17.200000000000       2.5109432068025    
  17.600000000000       0.0000000000000    
  18.000000000000       0.0000000000000    
  18.400000000000       5.0234949865740    
  18.800000000000       7.5352424798610    
  19.200000000000       0.0000000000000    
  19.600000000000       2.5221744992351    
  20.000000000000       0.0000000000000    
ZONE T= "Xw:     39.9300      Yw:     22.4100      Rw:    0.100000      Zwbot:     13.5000      Zwtop:     14.0000       Specie:  1 "
 0.40000000000000       0.0000000000000    
 0.80000000000000       0.0000000000000    
  1.2000000000000       0.0000000000000    
  1.6000000000000       0.0000000000000    
  2.0000000000000       0.0000000000000    
  2.4000000000000       0.0000000000000    
  2.8000000000000       0.0000000000000    
  3.2000000000000       0.0000000000000    
  3.6000000000000       0.0000000000000    
  4.0000000000000       0.0000000000000    
  4.4000000000000       0.0000000000000    
  4.8000000000000       0.0000000000000    
  5.2000000000000       0.0000000000000    
  5.6000000000000       0.0000000000000    
  6.0000000000000       0.0000000000000    
  6.4000000000000       0.0000000000000    
  6.8000000000000       0.0000000000000    
  7.2000000000000       0.0000000000000    
  7.6000000000000       0.0000000000000    
  8.0000000000000       0.0000000000000    
  8.4000000000000       0.0000000000000    
  8.8000000000000       0.0000000000000    
  9.2000000000000       0.0000000000000    
  9.6000000000000       0.0000000000000    
  10.000000000000       0.0000000000000    
  10.400000000000       0.0000000000000    
  10.800000000000       0.0000000000000    
  11.200000000000       0.0000000000000    
  11.600000000000       0.0000000000000    
  12.000000000000       0.0000000000000    
  12.400000000000       0.0000000000000    
  12.800000000000       0.0000000000000    
  13.200000000000       0.0000000000000    
  13.600000000000       7.4424917212211    
  14.000000000000       0.0000000000000    
  14.400000000000       2.5007878754784    
  14.800000000000       0.0000000000000    
  15.200000000000       7.4993969167326    
  15.600000000000       2.5007878754784    
  16.000000000000       5.0050628427347    
  16.400000000000       7.5058507182131    
  16.800000000000       5.0015757509567    
  17.200000000000       7.5155009985999    
  17.600000000000       12.496642582393    
  18.000000000000       9.9467360435948    
  18.400000000000       14.984028079256    
  18.800000000000       14.979094483241    
  19.200000000000       17.465045154869    
  19.600000000000       7.4884623271938    
  20.000000000000       7.4754889738409    
ZONE T= "Xw:     39.9300      Yw:     22.3100      Rw:    0.100000      Zwbot:     10.5000      Zwtop:     11.0000       Specie:  1 "
 0.40000000000000       0.0000000000000    
 0.80000000000000       0.0000000000000    
  1.2000000000000       0.0000000000000    
  1.6000000000000       0.0000000000000    
  2.0000000000000       0.0000000000000    
  2.4000000000000       0.0000000000000    
  2.8000000000000       0.0000000000000    
  3.2000000000000       0.0000000000000    
  3.6000000000000       0.0000000000000    
  4.0000000000000       0.0000000000000    
  4.4000000000000       0.0000000000000    
  4.8000000000000       9.9791724354528    
  5.2000000000000       2.5095819055086    
  5.6000000000000       7.4598720003666    
  6.0000000000000       20.000327339909    
  6.4000000000000       19.953515108496    
  6.8000000000000       14.947807032002    
  7.2000000000000       14.997364820264    
  7.6000000000000       17.489386115510    
  8.0000000000000       5.0190154919857    
  8.4000000000000       22.474483765423    
  8.8000000000000       12.496554171409    
  9.2000000000000       15.018179647968    
  9.6000000000000       17.515214365636    
  10.000000000000       25.002454186502    
  10.400000000000       45.040440418099    
  10.800000000000       22.459087469153    
  11.200000000000       34.991397958724    
  11.600000000000       35.148192640042    
  12.000000000000       22.461277139372    
  12.400000000000       22.423501079802    
  12.800000000000       42.415404915197    
  13.200000000000       32.361876368383    
  13.600000000000       12.426356997824    
  14.000000000000       4.9944698175043    
  14.400000000000       12.475661393946    
  14.800000000000       4.9653146969311    
  15.200000000000       22.454484728611    
  15.600000000000       19.981023072094    
  16.000000000000       10.049506374393    
  16.400000000000       9.9649621191889    
  16.800000000000       15.053713956015    
  17.200000000000       12.494522989710    
  17.600000000000       17.517662814203    
  18.000000000000       9.9552889477280    
  18.400000000000       5.0189695706697    
  18.800000000000       9.9262254581866    
  19.200000000000       9.9675025707321    
  19.600000000000       10.002720856036    
  20.000000000000       0.0000000000000    
ZONE T= "Xw:     40.0300      Yw:     22.4100      Rw:    0.100000      Zwbot:     7.60000      Zwtop:     8.10000       Specie:  1 "
 0.40000000000000       0.0000000000000    
 0.80000000000000       0.0000000000000    
  1.2000000000000       0.0000000000000    
  1.6000000000000       0.0000000000000    
  2.0000000000000       0.0000000000000    
  2.4000000000000       0.0000000000000    
  2.8000000000000       0.0000000000000    
  3.2000000000000       0.0000000000000    
  3.6000000000000       0.0000000000000    
  4.0000000000000       2.5002877944975    
  4.4000000000000       5.0018911472753    
  4.8000000000000       7.4794903442148    
  5.2000000000000       17.395310116586    
  5.6000000000000       4.9787504038453    
  6.0000000000000       0.0000000000000    
  6.4000000000000       17.396395538816    
  6.8000000000000       22.577553299287    
  7.2000000000000       35.073782137767    
  7.6000000000000       42.626823712785    
  8.0000000000000       32.598130809267    
  8.4000000000000       20.029496334925    
  8.8000000000000       37.453642937374    
  9.2000000000000       67.391486870222    
  9.6000000000000       49.932257185597    
  10.000000000000       50.069047881965    
  10.400000000000       77.538911465149    
  10.800000000000       42.495109428525    
  11.200000000000       32.511619373213    
  11.600000000000       57.520699021713    
  12.000000000000       45.185428848006    
  12.400000000000       57.544744775668    
  12.800000000000       37.484785903494    
  13.200000000000       60.133118608257    
  13.600000000000       40.088048683791    
  14.000000000000       40.147330274738    
  14.400000000000       17.598300896915    
  14.800000000000       27.471776218250    
  15.200000000000       30.103339676768    
  15.600000000000       15.056596913410    
  16.000000000000       30.147480956245    
  16.400000000000       17.582750205532    
  16.800000000000       10.049824143437    
  17.200000000000       17.554019390045    
  17.600000000000       24.977256799429    
  18.000000000000       9.9725493363887    
  18.400000000000       27.414616556077    
  18.800000000000       2.4755218981292    
  19.200000000000       5.0011182350451    
  19.600000000000       12.567641732750    
  20.000000000000       2.4735689145291    
ZONE T= "Xw:     39.9300      Yw:     22.4100      Rw:    0.100000      Zwbot:     4.50000      Zwtop:     5.00000       Specie:  1 "
 0.40000000000000       0.0000000000000    
 0.80000000000000       0.0000000000000    
  1.2000000000000       0.0000000000000    
  1.6000000000000       0.0000000000000    
  2.0000000000000       0.0000000000000    
  2.4000000000000       0.0000000000000    
  2.8000000000000       2.5097502580638    
  3.2000000000000       4.9563329878754    
  3.6000000000000       0.0000000000000    
  4.0000000000000       9.9036804645539    
  4.4000000000000       2.4930546126418    
  4.8000000000000       7.4791638379253    
  5.2000000000000       4.9960902403294    
  5.6000000000000       14.900185052943    
  6.0000000000000       24.917558629941    
  6.4000000000000       27.548627851146    
  6.8000000000000       27.518848127767    
  7.2000000000000       34.986371588905    
  7.6000000000000       37.440083133377    
  8.0000000000000       22.370825898018    
  8.4000000000000       24.881846060263    
  8.8000000000000       49.913007275159    
  9.2000000000000       40.021607417766    
  9.6000000000000       52.613355547097    
  10.000000000000       45.053405889316    
  10.400000000000       50.102566518592    
  10.800000000000       47.533295320468    
  11.200000000000       72.564429999408    
  11.600000000000       57.466369914281    
  12.000000000000       25.027495508123    
  12.400000000000       30.089344703465    
  12.800000000000       32.665208037788    
  13.200000000000       22.590442045408    
  13.600000000000       52.754940565050    
  14.000000000000       35.142595296406    
  14.400000000000       30.118859600980    
  14.800000000000       24.977857440176    
  15.200000000000       32.516328540561    
  15.600000000000       7.4711231530435    
  16.000000000000       17.435899092282    
  16.400000000000       9.9558628183925    
  16.800000000000       7.5231362810957    
  17.200000000000       9.9912149193571    
  17.600000000000       0.0000000000000    
  18.000000000000       9.9292776376531    
  18.400000000000       10.039215967095    
  18.800000000000       0.0000000000000    
  19.200000000000       0.0000000000000    
  19.600000000000       9.9910140358640    
  20.000000000000       10.014246908258    
ZONE T= "Xw:     39.8300      Yw:     28.4100      Rw:    0.100000      Zwbot:     16.5000      Zwtop:     17.0000       Specie:  1 "
 0.40000000000000       0.0000000000000    
 0.80000000000000       0.0000000000000    
  1.2000000000000       0.0000000000000    
  1.6000000000000       0.0000000000000    
  2.0000000000000       0.0000000000000    
  2.4000000000000       0.0000000000000    
  2.8000000000000       2.5236874048105    
  3.2000000000000       2.5236874048105    
  3.6000000000000       2.5236874048105    
  4.0000000000000       5.0473748096210    
  4.4000000000000       0.0000000000000    
  4.8000000000000       0.0000000000000    
  5.2000000000000       0.0000000000000    
  5.6000000000000       0.0000000000000    
  6.0000000000000       0.0000000000000    
  6.4000000000000       2.4660353768000    
  6.8000000000000       0.0000000000000    
  7.2000000000000       2.4892020143842    
  7.6000000000000       0.0000000000000    
  8.0000000000000       2.4892020143842    
  8.4000000000000       9.9732120509113    
  8.8000000000000       17.416734535585    
  9.2000000000000       4.9574587709166    
  9.6000000000000       14.949881655344    
  10.000000000000       29.853544417416    
  10.400000000000       20.006915127737    
  10.800000000000       10.048894758082    
  11.200000000000       12.588782584216    
  11.600000000000       17.476668079805    
  12.000000000000       4.9365981242100    
  12.400000000000       9.8843660014199    
  12.800000000000       7.5037988802508    
  13.200000000000       30.112275433506    
  13.600000000000       22.567384230758    
  14.000000000000       39.860690755491    
  14.400000000000       17.476739792625    
  14.800000000000       30.014606475309    
  15.200000000000       22.525442866618    
  15.600000000000       10.055205132135    
  16.000000000000       22.597250756959    
  16.400000000000       25.069901460696    
  16.800000000000       22.521642663040    
  17.200000000000       7.4751692931139    
  17.600000000000       30.042233864968    
  18.000000000000       12.516436719518    
  18.400000000000       20.172324001536    
  18.800000000000       10.008056781753    
  19.200000000000       10.056607210427    
  19.600000000000       10.050444154895    
  20.000000000000       12.452081000375    
ZONE T= "Xw:     39.9300      Yw:     28.4100      Rw:    0.100000      Zwbot:     13.5000      Zwtop:     14.0000       Specie:  1 "
 0.40000000000000       0.0000000000000    
 0.80000000000000       0.0000000000000    
  1.2000000000000       0.0000000000000    
  1.6000000000000       0.0000000000000    
  2.0000000000000       0.0000000000000    
  2.4000000000000       0.0000000000000    
  2.8000000000000       0.0000000000000    
  3.2000000000000       0.0000000000000    
  3.6000000000000       0.0000000000000    
  4.0000000000000       0.0000000000000    
  4.4000000000000       0.0000000000000    
  4.8000000000000       0.0000000000000    
  5.2000000000000       0.0000000000000    
  5.6000000000000       0.0000000000000    
  6.0000000000000       0.0000000000000    
  6.4000000000000       0.0000000000000    
  6.8000000000000       0.0000000000000    
  7.2000000000000       0.0000000000000    
  7.6000000000000       0.0000000000000    
  8.0000000000000       0.0000000000000    
  8.4000000000000       0.0000000000000    
  8.8000000000000       0.0000000000000    
  9.2000000000000       0.0000000000000    
  9.6000000000000       0.0000000000000    
  10.000000000000       0.0000000000000    
  10.400000000000       0.0000000000000    
  10.800000000000       0.0000000000000    
  11.200000000000       0.0000000000000    
  11.600000000000       0.0000000000000    
  12.000000000000       0.0000000000000    
  12.400000000000       0.0000000000000    
  12.800000000000       0.0000000000000    
  13.200000000000       0.0000000000000    
  13.600000000000       0.0000000000000    
  14.000000000000       0.0000000000000    
  14.400000000000       0.0000000000000    
  14.800000000000       5.0172505518357    
  15.200000000000       10.034501103671    
  15.600000000000       2.5097674418605    
  16.000000000000       0.0000000000000    
  16.400000000000       0.0000000000000    
  16.800000000000       7.4782840584898    
  17.200000000000       0.0000000000000    
  17.600000000000       0.0000000000000    
  18.000000000000       2.5258705491370    
  18.400000000000       0.0000000000000    
  18.800000000000       0.0000000000000    
  19.200000000000       7.4873596391000    
  19.600000000000       10.075372089883    
  20.000000000000       0.0000000000000    
ZONE T= "Xw:     39.8300      Yw:     28.4100      Rw:    0.100000      Zwbot:     10.6000      Zwtop:     11.2000       Specie:  1 "
 0.40000000000000       0.0000000000000    
 0.80000000000000       0.0000000000000    
  1.2000000000000       2.4902822883888    
  1.6000000000000       2.4902822883888    
  2.0000000000000       0.0000000000000    
  2.4000000000000       0.0000000000000    
  2.8000000000000       0.0000000000000    
  3.2000000000000       0.0000000000000    
  3.6000000000000       0.0000000000000    
  4.0000000000000       2.4784037727729    
  4.4000000000000       7.5524957671932    
  4.8000000000000       12.509919110022    
  5.2000000000000       5.0017752972754    
  5.6000000000000       22.427296238505    
  6.0000000000000       12.476207062088    
  6.4000000000000       7.4647132115884    
  6.8000000000000       10.050459338314    
  7.2000000000000       12.553854973309    
  7.6000000000000       35.135372163361    
  8.0000000000000       32.473223284492    
  8.4000000000000       42.677691353665    
  8.8000000000000       47.545788219055    
  9.2000000000000       37.443427938862    
  9.6000000000000       42.500673428811    
  10.000000000000       44.946364677942    
  10.400000000000       14.965965973374    
  10.800000000000       22.635055243514    
  11.200000000000       37.791135654547    
  11.600000000000       50.412819877219    
  12.000000000000       7.4314818116013    
  12.400000000000       22.534488401283    
  12.800000000000       22.462651169377    
  13.200000000000       35.025219156565    
  13.600000000000       22.605267051913    
  14.000000000000       27.403923014864    
  14.400000000000       45.117337734307    
  14.800000000000       27.443805206482    
  15.200000000000       22.640088363649    
  15.600000000000       22.563291074023    
  16.000000000000       25.074749927269    
  16.400000000000       15.057541603643    
  16.800000000000       4.9629557730750    
  17.200000000000       20.022509698645    
  17.600000000000       12.516683199495    
  18.000000000000       7.4117420901237    
  18.400000000000       5.0292339550634    
  18.800000000000       5.0042086015180    
  19.200000000000       2.5038409080774    
  19.600000000000       0.0000000000000    
  20.000000000000       2.5038409080774    
ZONE T= "Xw:     39.8300      Yw:     28.4100      Rw:    0.100000      Zwbot:     7.60000      Zwtop:     8.30000       Specie:  1 "
 0.40000000000000       0.0000000000000    
 0.80000000000000       0.0000000000000    
  1.2000000000000       0.0000000000000    
  1.6000000000000       2.5257406124695    
  2.0000000000000       0.0000000000000    
  2.4000000000000       0.0000000000000    
  2.8000000000000       7.4226073682802    
  3.2000000000000       7.4659976159489    
  3.6000000000000       2.4698529190239    
  4.0000000000000       2.4698529190239    
  4.4000000000000       12.459063976723    
  4.8000000000000       17.541397640124    
  5.2000000000000       15.084433388538    
  5.6000000000000       12.656820055745    
  6.0000000000000       14.903224740525    
  6.4000000000000       29.876160173376    
  6.8000000000000       32.561762370274    
  7.2000000000000       32.478124981886    
  7.6000000000000       45.092160236568    
  8.0000000000000       27.438510108515    
  8.4000000000000       17.426038234185    
  8.8000000000000       19.968277813269    
  9.2000000000000       25.068283457479    
  9.6000000000000       17.375426878548    
  10.000000000000       14.963988256593    
  10.400000000000       20.117589306334    
  10.800000000000       19.838906295798    
  11.200000000000       24.906771347209    
  11.600000000000       37.289149848204    
  12.000000000000       12.475826063574    
  12.400000000000       19.951072995087    
  12.800000000000       22.375066424455    
  13.200000000000       24.979644266438    
  13.600000000000       27.646507756290    
  14.000000000000       17.544987362398    
  14.400000000000       55.073020164116    
  14.800000000000       19.957351102420    
  15.200000000000       32.516073789747    
  15.600000000000       47.267087461403    
  16.000000000000       20.006090317630    
  16.400000000000       32.603475391527    
  16.800000000000       22.373494434066    
  17.200000000000       20.055532213550    
  17.600000000000       22.486296922745    
  18.000000000000       37.308013917387    
  18.400000000000       30.020453762627    
  18.800000000000       32.614237741664    
  19.200000000000       14.896393277220    
  19.600000000000       17.455964771058    
  20.000000000000       14.960631343823    
ZONE T= "Xw:     39.8300      Yw:     28.5100      Rw:    0.100000      Zwbot:     4.50000      Zwtop:     5.00000       Specie:  1 "
 0.40000000000000       0.0000000000000    
 0.80000000000000       0.0000000000000    
  1.2000000000000       4.9255792042979    
  1.6000000000000       22.389423816148    
  2.0000000000000       7.5365468674479    
  2.4000000000000       22.549745317518    
  2.8000000000000       17.586085981537    
  3.2000000000000       22.593107572057    
  3.6000000000000       25.032868887239    
  4.0000000000000       44.928601557156    
  4.4000000000000       27.477627112475    
  4.8000000000000       27.341115798930    
  5.2000000000000       30.074371584244    
  5.6000000000000       32.525087677471    
  6.0000000000000       45.140566237067    
  6.4000000000000       30.114797310490    
  6.8000000000000       35.125041827094    
  7.2000000000000       32.448502895603    
  7.6000000000000       37.544807389377    
  8.0000000000000       59.975506996852    
  8.4000000000000       47.697901442975    
  8.8000000000000       42.720343885115    
  9.2000000000000       70.323798165005    
  9.6000000000000       54.910420179680    
  10.000000000000       42.524389370209    
  10.400000000000       22.580318688238    
  10.800000000000       12.656821721393    
  11.200000000000       17.663014292721    
  11.600000000000       25.060355995478    
  12.000000000000       10.010799645476    
  12.400000000000       12.486769191435    
  12.800000000000       22.524996188158    
  13.200000000000       12.461521345048    
  13.600000000000       9.9610580072047    
  14.000000000000       7.4308434927350    
  14.400000000000       9.9233030273802    
  14.800000000000       10.156820321064    
  15.200000000000       0.0000000000000    
  15.600000000000       2.4957113940518    
  16.000000000000       0.0000000000000    
  16.400000000000       0.0000000000000    
  16.800000000000       0.0000000000000    
  17.200000000000       4.9664427621889    
  17.600000000000       2.4832213810944    
  18.000000000000       2.4832213810944    
  18.400000000000       0.0000000000000    
  18.800000000000       0.0000000000000    
  19.200000000000       0.0000000000000    
  19.600000000000       0.0000000000000    
  20.000000000000       0.0000000000000    
ZONE T= "Xw:     39.5300      Yw:     34.0100      Rw:    0.100000      Zwbot:     16.7000      Zwtop:     17.3000       Specie:  1 "
 0.40000000000000       24.878619824577    
 0.80000000000000       2.4878619824577    
  1.2000000000000       4.9606147000399    
  1.6000000000000       12.393982117662    
  2.0000000000000       12.389977275765    
  2.4000000000000       4.9757239649154    
  2.8000000000000       9.9514479298308    
  3.2000000000000       5.0186665264318    
  3.6000000000000       12.486113922307    
  4.0000000000000       12.463581677410    
  4.4000000000000       29.937098648443    
  4.8000000000000       9.9919968729456    
  5.2000000000000       9.9717125554109    
  5.6000000000000       7.4529784197478    
  6.0000000000000       0.0000000000000    
  6.4000000000000       2.4788996480368    
  6.8000000000000       15.024891745431    
  7.2000000000000       24.994686534477    
  7.6000000000000       5.0278412091667    
  8.0000000000000       22.463673201366    
  8.4000000000000       27.508117923411    
  8.8000000000000       37.477913005426    
  9.2000000000000       17.453208201230    
  9.6000000000000       32.433248651537    
  10.000000000000       37.605352796042    
  10.400000000000       12.509693596474    
  10.800000000000       57.295155187000    
  11.200000000000       65.008052451515    
  11.600000000000       32.512128646522    
  12.000000000000       17.592773953346    
  12.400000000000       40.008892782784    
  12.800000000000       40.044378628982    
  13.200000000000       19.989317959700    
  13.600000000000       25.056688032490    
  14.000000000000       27.637365045469    
  14.400000000000       25.165866968732    
  14.800000000000       27.618021524608    
  15.200000000000       22.584745935960    
  15.600000000000       15.077599956192    
  16.000000000000       7.5484563728291    
  16.400000000000       20.049940440993    
  16.800000000000       22.578016983364    
  17.200000000000       30.071550219234    
  17.600000000000       10.043452471089    
  18.000000000000       12.642399007939    
  18.400000000000       17.630393980471    
  18.800000000000       17.584352447044    
  19.200000000000       2.5025524951351    
  19.600000000000       15.045153659305    
  20.000000000000       2.5112811102901    
ZONE T= "Xw:     39.5300      Yw:     34.1100      Rw:    0.100000      Zwbot:     13.5000      Zwtop:     14.0000       Specie:  1 "
 0.40000000000000       0.0000000000000    
 0.80000000000000       0.0000000000000    
  1.2000000000000       0.0000000000000    
  1.6000000000000       0.0000000000000    
  2.0000000000000       0.0000000000000    
  2.4000000000000       0.0000000000000    
  2.8000000000000       0.0000000000000    
  3.2000000000000       0.0000000000000    
  3.6000000000000       2.5112205224027    
  4.0000000000000       0.0000000000000    
  4.4000000000000       0.0000000000000    
  4.8000000000000       0.0000000000000    
  5.2000000000000       10.099251125478    
  5.6000000000000       2.5248127813695    
  6.0000000000000       0.0000000000000    
  6.4000000000000       2.5121477034568    
  6.8000000000000       2.5248127813695    
  7.2000000000000       12.471388359548    
  7.6000000000000       4.9915951371363    
  8.0000000000000       0.0000000000000    
  8.4000000000000       5.0104949207663    
  8.8000000000000       7.5093281611026    
  9.2000000000000       5.0242954069135    
  9.6000000000000       17.428684589443    
  10.000000000000       22.453738151901    
  10.400000000000       32.665628121033    
  10.800000000000       17.558025490131    
  11.200000000000       32.626079187081    
  11.600000000000       10.004811437048    
  12.000000000000       14.988542167209    
  12.400000000000       25.029046295912    
  12.800000000000       30.077709209707    
  13.200000000000       14.946394531776    
  13.600000000000       22.456457291436    
  14.000000000000       9.9852613099386    
  14.400000000000       10.050759667020    
  14.800000000000       25.026185515790    
  15.200000000000       22.495093219674    
  15.600000000000       24.922045080092    
  16.000000000000       17.476191503069    
  16.400000000000       30.093570246667    
  16.800000000000       14.932211094683    
  17.200000000000       19.940601063223    
  17.600000000000       37.497283169887    
  18.000000000000       32.481717375107    
  18.400000000000       27.492795466848    
  18.800000000000       24.996971417933    
  19.200000000000       40.035983982444    
  19.600000000000       27.436684720515    
  20.000000000000       0.0000000000000    
ZONE T= "Xw:     39.4300      Yw:     34.0100      Rw:    0.100000      Zwbot:     10.5000      Zwtop:     11.1000       Specie:  1 "
 0.40000000000000       105.18551382208    
 0.80000000000000       9.9980605314485    
  1.2000000000000       20.113159180333    
  1.6000000000000       32.607756396621    
  2.0000000000000       15.030783057574    
  2.4000000000000       17.535017333365    
  2.8000000000000       7.5483718322301    
  3.2000000000000       37.695608215559    
  3.6000000000000       17.477068318604    
  4.0000000000000       20.055716946451    
  4.4000000000000       24.928398504311    
  4.8000000000000       30.045464065203    
  5.2000000000000       35.109878713684    
  5.6000000000000       40.048383878801    
  6.0000000000000       40.047204508755    
  6.4000000000000       40.016364100901    
  6.8000000000000       27.480742741270    
  7.2000000000000       12.516217915937    
  7.6000000000000       44.997967964846    
  8.0000000000000       40.059381237951    
  8.4000000000000       24.937546673506    
  8.8000000000000       50.236906849725    
  9.2000000000000       27.358828014550    
  9.6000000000000       19.938475066536    
  10.000000000000       34.912194699916    