 TITLE="TECPLOT input file: Breakthrough Curves" 
 VARIABLES="Time" "Concentrations" 
ZONE T= "Xw:     39.9300      Yw:     22.4100      Rw:    0.100000      Zwbot:     16.5000      Zwtop:     17.0000       Specie:  1 "
 0.40000000000000       0.0000000000000    
 0.80000000000000       0.0000000000000    
  1.2000000000000       0.0000000000000    
  1.6000000000000       0.0000000000000    
  2.0000000000000       0.0000000000000    
  2.4000000000000       0.0000000000000    
  2.8000000000000       0.0000000000000    
  3.2000000000000       0.0000000000000    
  3.6000000000000       0.0000000000000    
  4.0000000000000       0.0000000000000    
  4.4000000000000       0.0000000000000    
  4.8000000000000       0.0000000000000    
  5.2000000000000       0.0000000000000    
  5.6000000000000       0.0000000000000    
  6.0000000000000       0.0000000000000    
  6.4000000000000       0.0000000000000    
  6.8000000000000       0.0000000000000    
  7.2000000000000       0.0000000000000    
  7.6000000000000       0.0000000000000    
  8.0000000000000       0.0000000000000    
  8.4000000000000       0.0000000000000    
  8.8000000000000       0.0000000000000    
  9.2000000000000       0.0000000000000    
  9.6000000000000       0.0000000000000    
  10.000000000000       0.0000000000000    
  10.400000000000       0.0000000000000    
  10.800000000000       0.0000000000000    
  11.200000000000       0.0000000000000    
  11.600000000000       0.0000000000000    
  12.000000000000       0.0000000000000    
  12.400000000000       0.0000000000000    
  12.800000000000       0.0000000000000    
  13.200000000000       0.0000000000000    
  13.600000000000       0.0000000000000    
  14.000000000000       0.0000000000000    
  14.400000000000       5.0237934995026    
  14.800000000000       0.0000000000000    
  15.200000000000       0.0000000000000    
  15.600000000000       2.5184150901844    
  16.000000000000       5.0368301803687    
  16.400000000000       0.0000000000000    
  16.800000000000       0.0000000000000    
  17.200000000000       5.0222693210605    
  17.600000000000       7.5411330772975    
  18.000000000000       0.0000000000000    
  18.400000000000       5.0470906625505    
  18.800000000000       5.0299984167673    
  19.200000000000       2.5149992083836    
  19.600000000000       7.5552452705531    
  20.000000000000       0.0000000000000    
ZONE T= "Xw:     39.9300      Yw:     22.4100      Rw:    0.100000      Zwbot:     13.5000      Zwtop:     14.0000       Specie:  1 "
 0.40000000000000       0.0000000000000    
 0.80000000000000       0.0000000000000    
  1.2000000000000       0.0000000000000    
  1.6000000000000       0.0000000000000    
  2.0000000000000       0.0000000000000    
  2.4000000000000       0.0000000000000    
  2.8000000000000       0.0000000000000    
  3.2000000000000       0.0000000000000    
  3.6000000000000       0.0000000000000    
  4.0000000000000       0.0000000000000    
  4.4000000000000       0.0000000000000    
  4.8000000000000       0.0000000000000    
  5.2000000000000       0.0000000000000    
  5.6000000000000       0.0000000000000    
  6.0000000000000       0.0000000000000    
  6.4000000000000       0.0000000000000    
  6.8000000000000       0.0000000000000    
  7.2000000000000       0.0000000000000    
  7.6000000000000       0.0000000000000    
  8.0000000000000       0.0000000000000    
  8.4000000000000       0.0000000000000    
  8.8000000000000       0.0000000000000    
  9.2000000000000       0.0000000000000    
  9.6000000000000       0.0000000000000    
  10.000000000000       0.0000000000000    
  10.400000000000       0.0000000000000    
  10.800000000000       0.0000000000000    
  11.200000000000       0.0000000000000    
  11.600000000000       0.0000000000000    
  12.000000000000       0.0000000000000    
  12.400000000000       0.0000000000000    
  12.800000000000       0.0000000000000    
  13.200000000000       0.0000000000000    
  13.600000000000       0.0000000000000    
  14.000000000000       2.4859561800915    
  14.400000000000       0.0000000000000    
  14.800000000000       2.5139865391058    
  15.200000000000       0.0000000000000    
  15.600000000000       2.4984565112687    
  16.000000000000       5.0124430503745    
  16.400000000000       7.4703688714517    
  16.800000000000       7.4828692026289    
  17.200000000000       4.9969130225373    
  17.600000000000       2.4995895220386    
  18.000000000000       0.0000000000000    
  18.400000000000       9.9972250773843    
  18.800000000000       4.9740404846374    
  19.200000000000       4.9719123601831    
  19.600000000000       4.9936677449463    
  20.000000000000       0.0000000000000    
ZONE T= "Xw:     39.9300      Yw:     22.3100      Rw:    0.100000      Zwbot:     10.5000      Zwtop:     11.0000       Specie:  1 "
 0.40000000000000       0.0000000000000    
 0.80000000000000       0.0000000000000    
  1.2000000000000       0.0000000000000    
  1.6000000000000       0.0000000000000    
  2.0000000000000       0.0000000000000    
  2.4000000000000       0.0000000000000    
  2.8000000000000       0.0000000000000    
  3.2000000000000       0.0000000000000    
  3.6000000000000       0.0000000000000    
  4.0000000000000       0.0000000000000    
  4.4000000000000       0.0000000000000    
  4.8000000000000       0.0000000000000    
  5.2000000000000       7.4685490796819    
  5.6000000000000       7.4310007167084    
  6.0000000000000       12.485717756514    
  6.4000000000000       32.560433007571    
  6.8000000000000       12.545171465802    
  7.2000000000000       30.070034988008    
  7.6000000000000       29.952860904542    
  8.0000000000000       55.005774325383    
  8.4000000000000       50.075201075819    
  8.8000000000000       50.057998097273    
  9.2000000000000       52.614551568591    
  9.6000000000000       45.091828938114    
  10.000000000000       64.985264921130    
  10.400000000000       17.555515332944    
  10.800000000000       10.002602231404    
  11.200000000000       19.918363449009    
  11.600000000000       37.317307228608    
  12.000000000000       27.456720000324    
  12.400000000000       12.457104857825    
  12.800000000000       17.424661620488    
  13.200000000000       12.517558481507    
  13.600000000000       14.982278296975    
  14.000000000000       10.033494012989    
  14.400000000000       17.541226598257    
  14.800000000000       4.9812500000000    
  15.200000000000       10.056671164865    
  15.600000000000       20.042008580072    
  16.000000000000       10.034836026999    
  16.400000000000       7.5064793688363    
  16.800000000000       10.021324634147    
  17.200000000000       30.110432259391    
  17.600000000000       17.551835818408    
  18.000000000000       20.124374633118    
  18.400000000000       10.080551320896    
  18.800000000000       10.076372091297    
  19.200000000000       0.0000000000000    
  19.600000000000       0.0000000000000    
  20.000000000000       0.0000000000000    
ZONE T= "Xw:     40.0300      Yw:     22.4100      Rw:    0.100000      Zwbot:     7.60000      Zwtop:     8.10000       Specie:  1 "
 0.40000000000000       0.0000000000000    
 0.80000000000000       0.0000000000000    
  1.2000000000000       0.0000000000000    
  1.6000000000000       0.0000000000000    
  2.0000000000000       0.0000000000000    
  2.4000000000000       0.0000000000000    
  2.8000000000000       0.0000000000000    
  3.2000000000000       0.0000000000000    
  3.6000000000000       0.0000000000000    
  4.0000000000000       0.0000000000000    
  4.4000000000000       0.0000000000000    
  4.8000000000000       2.5060986850166    
  5.2000000000000       9.9763432657030    
  5.6000000000000       29.985699136957    
  6.0000000000000       7.5104596226777    
  6.4000000000000       17.534939244762    
  6.8000000000000       24.959790698641    
  7.2000000000000       17.427926949793    
  7.6000000000000       27.515517155893    
  8.0000000000000       29.915896162104    
  8.4000000000000       62.406344336846    
  8.8000000000000       52.515052729854    
  9.2000000000000       57.417645719216    
  9.6000000000000       69.858284950760    
  10.000000000000       49.920763095550    
  10.400000000000       47.491137657177    
  10.800000000000       37.488559275673    
  11.200000000000       32.438010171859    
  11.600000000000       39.951936288480    
  12.000000000000       27.449680215368    
  12.400000000000       37.527957993511    
  12.800000000000       50.095507264832    
  13.200000000000       42.547842468538    
  13.600000000000       39.985895994899    
  14.000000000000       39.886535029373    
  14.400000000000       47.338132910751    
  14.800000000000       30.006507659466    
  15.200000000000       12.476686303488    
  15.600000000000       14.963795666637    
  16.000000000000       17.522390307596    
  16.400000000000       14.966334707683    
  16.800000000000       7.4347988682071    
  17.200000000000       0.0000000000000    
  17.600000000000       7.5125947648355    
  18.000000000000       5.0227108947562    
  18.400000000000       2.4779869622040    
  18.800000000000       9.9306197197218    
  19.200000000000       2.5149739775708    
  19.600000000000       0.0000000000000    
  20.000000000000       0.0000000000000    
ZONE T= "Xw:     39.9300      Yw:     22.4100      Rw:    0.100000      Zwbot:     4.50000      Zwtop:     5.00000       Specie:  1 "
 0.40000000000000       0.0000000000000    
 0.80000000000000       0.0000000000000    
  1.2000000000000       0.0000000000000    
  1.6000000000000       0.0000000000000    
  2.0000000000000       0.0000000000000    
  2.4000000000000       0.0000000000000    
  2.8000000000000       0.0000000000000    
  3.2000000000000       2.4718199172979    
  3.6000000000000       4.9436398345958    
  4.0000000000000       12.415324102132    
  4.4000000000000       19.933969563058    
  4.8000000000000       12.468735053563    
  5.2000000000000       7.5162438573678    
  5.6000000000000       20.011923070097    
  6.0000000000000       35.055378508402    
  6.4000000000000       17.521793783470    
  6.8000000000000       25.047958959864    
  7.2000000000000       27.517084521147    
  7.6000000000000       32.467744680847    
  8.0000000000000       45.021810186620    
  8.4000000000000       42.500355804327    
  8.8000000000000       34.888503017322    
  9.2000000000000       27.413240015907    
  9.6000000000000       32.546811240582    
  10.000000000000       39.985478036805    
  10.400000000000       17.425740092194    
  10.800000000000       39.990242488583    
  11.200000000000       37.608323989936    
  11.600000000000       30.200908058641    
  12.000000000000       24.928765215556    
  12.400000000000       34.982887726369    
  12.800000000000       17.562285138595    
  13.200000000000       32.512405418004    
  13.600000000000       17.489472260996    
  14.000000000000       25.075796594739    
  14.400000000000       24.994473729841    
  14.800000000000       15.053982380073    
  15.200000000000       7.4694204550730    
  15.600000000000       4.9870795816432    
  16.000000000000       5.0002858237870    
  16.400000000000       2.5204620414686    
  16.800000000000       10.057324709301    
  17.200000000000       7.5593593827041    
  17.600000000000       10.002731811345    
  18.000000000000       7.5668219466505    
  18.400000000000       7.5819651206090    
  18.800000000000       0.0000000000000    
  19.200000000000       2.5157458493401    
  19.600000000000       2.5175216437169    
  20.000000000000       2.5157458493401    
ZONE T= "Xw:     39.8300      Yw:     28.4100      Rw:    0.100000      Zwbot:     16.5000      Zwtop:     17.0000       Specie:  1 "
 0.40000000000000       0.0000000000000    
 0.80000000000000       0.0000000000000    
  1.2000000000000       0.0000000000000    
  1.6000000000000       0.0000000000000    
  2.0000000000000       0.0000000000000    
  2.4000000000000       0.0000000000000    
  2.8000000000000       0.0000000000000    
  3.2000000000000       0.0000000000000    
  3.6000000000000       0.0000000000000    
  4.0000000000000       0.0000000000000    
  4.4000000000000       0.0000000000000    
  4.8000000000000       0.0000000000000    
  5.2000000000000       4.9177171351698    
  5.6000000000000       0.0000000000000    
  6.0000000000000       9.9427881496015    
  6.4000000000000       9.8716433166274    
  6.8000000000000       4.9532895516569    
  7.2000000000000       0.0000000000000    
  7.6000000000000       4.9991222447540    
  8.0000000000000       10.012051390599    
  8.4000000000000       19.970558586593    
  8.8000000000000       9.8761368251318    
  9.2000000000000       10.023928321045    
  9.6000000000000       5.0015870972777    
  10.000000000000       12.501477521590    
  10.400000000000       7.4271988219988    
  10.800000000000       27.367828560640    
  11.200000000000       19.917823418920    
  11.600000000000       37.369991427628    
  12.000000000000       34.999027913918    
  12.400000000000       20.079777828177    
  12.800000000000       14.991755321486    
  13.200000000000       24.995990025744    
  13.600000000000       15.052810307742    
  14.000000000000       20.064744014897    
  14.400000000000       32.579657406411    
  14.800000000000       22.544620440065    
  15.200000000000       19.972584402567    
  15.600000000000       25.011345103499    
  16.000000000000       17.540574267675    
  16.400000000000       29.923816034059    
  16.800000000000       9.9161196976974    
  17.200000000000       10.051487277090    
  17.600000000000       19.972746388129    
  18.000000000000       24.935476653240    
  18.400000000000       17.406688667657    
  18.800000000000       4.9319218179834    
  19.200000000000       4.9821927023500    
  19.600000000000       15.060609190951    
  20.000000000000       2.5376879088639    
ZONE T= "Xw:     39.9300      Yw:     28.4100      Rw:    0.100000      Zwbot:     13.5000      Zwtop:     14.0000       Specie:  1 "
 0.40000000000000       0.0000000000000    
 0.80000000000000       0.0000000000000    
  1.2000000000000       0.0000000000000    
  1.6000000000000       0.0000000000000    
  2.0000000000000       0.0000000000000    
  2.4000000000000       0.0000000000000    
  2.8000000000000       0.0000000000000    
  3.2000000000000       0.0000000000000    
  3.6000000000000       0.0000000000000    
  4.0000000000000       0.0000000000000    
  4.4000000000000       0.0000000000000    
  4.8000000000000       0.0000000000000    
  5.2000000000000       0.0000000000000    
  5.6000000000000       0.0000000000000    
  6.0000000000000       0.0000000000000    
  6.4000000000000       0.0000000000000    
  6.8000000000000       0.0000000000000    
  7.2000000000000       0.0000000000000    
  7.6000000000000       0.0000000000000    
  8.0000000000000       7.4832604245941    
  8.4000000000000       2.4944201415314    
  8.8000000000000       0.0000000000000    
  9.2000000000000       4.9888402830627    
  9.6000000000000       0.0000000000000    
  10.000000000000       4.9888402830627    
  10.400000000000       0.0000000000000    
  10.800000000000       9.9776805661255    
  11.200000000000       4.9888402830627    
  11.600000000000       0.0000000000000    
  12.000000000000       0.0000000000000    
  12.400000000000       4.9888402830627    
  12.800000000000       2.4944201415314    
  13.200000000000       0.0000000000000    
  13.600000000000       0.0000000000000    
  14.000000000000       0.0000000000000    
  14.400000000000       0.0000000000000    
  14.800000000000       4.9436479684352    
  15.200000000000       0.0000000000000    
  15.600000000000       0.0000000000000    
  16.000000000000       2.4752746515126    
  16.400000000000       0.0000000000000    
  16.800000000000       7.4104614228052    
  17.200000000000       4.9351867712927    
  17.600000000000       2.4752746515126    
  18.000000000000       2.4752746515126    
  18.400000000000       2.4965928713555    
  18.800000000000       9.9689095707512    
  19.200000000000       12.354109391240    
  19.600000000000       17.319750977589    
  20.000000000000       0.0000000000000    
ZONE T= "Xw:     39.8300      Yw:     28.4100      Rw:    0.100000      Zwbot:     10.6000      Zwtop:     11.2000       Specie:  1 "
 0.40000000000000       0.0000000000000    
 0.80000000000000       0.0000000000000    
  1.2000000000000       0.0000000000000    
  1.6000000000000       2.4950140350787    
  2.0000000000000       15.005335851148    
  2.4000000000000       2.4950140350787    
  2.8000000000000       0.0000000000000    
  3.2000000000000       0.0000000000000    
  3.6000000000000       14.924548386989    
  4.0000000000000       4.9346962794038    
  4.4000000000000       5.0823014544079    
  4.8000000000000       9.9690029820189    
  5.2000000000000       14.866950755915    
  5.6000000000000       14.888874782424    
  6.0000000000000       9.9318885430677    
  6.4000000000000       19.984510783046    
  6.8000000000000       32.526981905255    
  7.2000000000000       29.878133239599    
  7.6000000000000       14.887184293847    
  8.0000000000000       24.940929104518    
  8.4000000000000       37.503781093497    
  8.8000000000000       2.5273218773567    
  9.2000000000000       20.000597673748    
  9.6000000000000       12.527507567098    
  10.000000000000       44.925021659838    
  10.400000000000       24.981070228398    
  10.800000000000       29.883919294438    
  11.200000000000       37.431706142236    
  11.600000000000       37.428179209197    
  12.000000000000       32.633943091462    
  12.400000000000       15.011744712498    
  12.800000000000       17.458136502571    
  13.200000000000       30.030751284457    
  13.600000000000       25.147955427325    
  14.000000000000       22.597065706276    
  14.400000000000       30.012705987631    
  14.800000000000       32.572000991877    
  15.200000000000       37.535338927879    
  15.600000000000       32.414554452770    
  16.000000000000       35.012431548566    
  16.400000000000       42.531060074000    
  16.800000000000       7.5884836319094    
  17.200000000000       12.406342200132    
  17.600000000000       7.5777044616825    
  18.000000000000       22.393435358493    
  18.400000000000       17.491808821550    
  18.800000000000       17.337789211607    
  19.200000000000       0.0000000000000    
  19.600000000000       2.4736809357712    
  20.000000000000       0.0000000000000    
ZONE T= "Xw:     39.8300      Yw:     28.4100      Rw:    0.100000      Zwbot:     7.60000      Zwtop:     8.30000       Specie:  1 "
 0.40000000000000       0.0000000000000    
 0.80000000000000       0.0000000000000    
  1.2000000000000       0.0000000000000    
  1.6000000000000       0.0000000000000    
  2.0000000000000       2.4768584851173    
  2.4000000000000       0.0000000000000    
  2.8000000000000       0.0000000000000    
  3.2000000000000       14.987644752578    
  3.6000000000000       9.9875189342766    
  4.0000000000000       20.110818640875    
  4.4000000000000       37.554008770261    
  4.8000000000000       32.753387154477    
  5.2000000000000       17.548044512991    
  5.6000000000000       25.060772535397    
  6.0000000000000       27.308831912899    
  6.4000000000000       22.384354097737    
  6.8000000000000       9.8736339287085    
  7.2000000000000       14.970038311858    
  7.6000000000000       27.467277371869    
  8.0000000000000       27.530144914292    
  8.4000000000000       32.390356920548    
  8.8000000000000       42.502349375296    
  9.2000000000000       29.831764716398    
  9.6000000000000       42.436998775679    
  10.000000000000       39.953363031008    
  10.400000000000       35.012240678142    
  10.800000000000       22.346016087240    
  11.200000000000       44.806283249383    
  11.600000000000       40.025462462847    
  12.000000000000       47.315496438505    
  12.400000000000       42.482407143965    
  12.800000000000       17.491927317437    
  13.200000000000       12.531770079556    
  13.600000000000       17.428838818150    
  14.000000000000       37.510773317040    
  14.400000000000       34.972485348669    
  14.800000000000       27.247666007677    
  15.200000000000       22.343378844277    
  15.600000000000       14.874560007245    
  16.000000000000       47.351470161982    
  16.400000000000       27.307668408828    
  16.800000000000       7.4502626090080    
  17.200000000000       9.9525813816121    
  17.600000000000       17.372934736215    
  18.000000000000       24.779660129759    
  18.400000000000       39.807057787364    
  18.800000000000       7.4560195899617    
  19.200000000000       5.0174282196495    
  19.600000000000       4.9590491605898    
  20.000000000000       2.5283092010147    
ZONE T= "Xw:     39.8300      Yw:     28.5100      Rw:    0.100000      Zwbot:     4.50000      Zwtop:     5.00000       Specie:  1 "
 0.40000000000000       0.0000000000000    
 0.80000000000000       7.4910371690085    
  1.2000000000000       7.4735798316423    
  1.6000000000000       17.511496896478    
  2.0000000000000       7.5166377636047    
  2.4000000000000       4.9588489184852    
  2.8000000000000       29.959345680778    
  3.2000000000000       27.526550437655    
  3.6000000000000       47.518523229504    
  4.0000000000000       44.974212445522    
  4.4000000000000       22.476337397936    
  4.8000000000000       27.489131692833    
  5.2000000000000       42.319207212175    
  5.6000000000000       27.477416211125    
  6.0000000000000       12.551792561148    
  6.4000000000000       39.919901194408    
  6.8000000000000       42.743872754062    
  7.2000000000000       42.683923583235    
  7.6000000000000       47.928184859191    
  8.0000000000000       35.056590676001    
  8.4000000000000       29.868492013378    
  8.8000000000000       17.497672512522    
  9.2000000000000       22.519168489089    
  9.6000000000000       32.503608085822    
  10.000000000000       15.010478238451    
  10.400000000000       14.975224410882    
  10.800000000000       20.088441743206    
  11.200000000000       7.4573356774854    
  11.600000000000       15.041612108972    
  12.000000000000       19.941226988315    
  12.400000000000       9.9686511099195    
  12.800000000000       4.9665901036640    
  13.200000000000       9.9665880040479    
  13.600000000000       4.9481630369921    
  14.000000000000       2.4944309840720    
  14.400000000000       0.0000000000000    
  14.800000000000       7.4684008633669    
  15.200000000000       4.9956983504417    
  15.600000000000       0.0000000000000    
  16.000000000000       0.0000000000000    
  16.400000000000       0.0000000000000    
  16.800000000000       2.4813060619095    
  17.200000000000       4.9626121238189    
  17.600000000000       0.0000000000000    
  18.000000000000       2.4813060619095    
  18.400000000000       9.9252242476378    
  18.800000000000       0.0000000000000    
  19.200000000000       0.0000000000000    
  19.600000000000       0.0000000000000    
  20.000000000000       0.0000000000000    
ZONE T= "Xw:     39.5300      Yw:     34.0100      Rw:    0.100000      Zwbot:     16.7000      Zwtop:     17.3000       Specie:  1 "
 0.40000000000000       0.0000000000000    
 0.80000000000000       0.0000000000000    
  1.2000000000000       0.0000000000000    
  1.6000000000000       2.4765117712134    
  2.0000000000000       2.4880120735388    
  2.4000000000000       10.017877925776    
  2.8000000000000       14.977359713552    
  3.2000000000000       7.5130743458214    
  3.6000000000000       4.9840430632145    
  4.0000000000000       5.0000825926156    
  4.4000000000000       10.040769848541    
  4.8000000000000       4.9529054689060    
  5.2000000000000       2.4799213465905    
  5.6000000000000       14.834620196007    
  6.0000000000000       12.460853519759    
  6.4000000000000       19.899709107273    
  6.8000000000000       24.950768169817    
  7.2000000000000       15.010957283971    
  7.6000000000000       12.463931867088    
  8.0000000000000       15.001365002741    
  8.4000000000000       15.043800811836    
  8.8000000000000       34.844414579242    
  9.2000000000000       17.437669330543    
  9.6000000000000       17.500098842381    
  10.000000000000       9.9241344064478    
  10.400000000000       37.337287273974    
  10.800000000000       24.822803485526    
  11.200000000000       29.842199818250    
  11.600000000000       17.379237598777    
  12.000000000000       19.976856979100    
  12.400000000000       42.511293799053    
  12.800000000000       12.545770213438    
  13.200000000000       4.9937724700663    
  13.600000000000       12.564513187824    
  14.000000000000       10.080153491464    
  14.400000000000       12.546546602559    
  14.800000000000       22.583390542816    
  15.200000000000       29.985556763658    
  15.600000000000       17.463149926749    
  16.000000000000       7.5065311517220    
  16.400000000000       2.4727857511250    
  16.800000000000       4.9998548977248    
  17.200000000000       12.449698353404    
  17.600000000000       9.9818814730065    
  18.000000000000       2.5200077460630    
  18.400000000000       32.592031177818    
  18.800000000000       17.420815537525    
  19.200000000000       12.489865572645    
  19.600000000000       12.422884080825    
  20.000000000000       0.0000000000000    
ZONE T= "Xw:     39.5300      Yw:     34.1100      Rw:    0.100000      Zwbot:     13.5000      Zwtop:     14.0000       Specie:  1 "
 0.40000000000000       0.0000000000000    
 0.80000000000000       0.0000000000000    
  1.2000000000000       0.0000000000000    
  1.6000000000000       0.0000000000000    
  2.0000000000000       0.0000000000000    
  2.4000000000000       0.0000000000000    
  2.8000000000000       2.4880120735388    
  3.2000000000000       0.0000000000000    
  3.6000000000000       0.0000000000000    
  4.0000000000000       2.4880120735388    
  4.4000000000000       0.0000000000000    
  4.8000000000000       0.0000000000000    
  5.2000000000000       4.9886403759032    
  5.6000000000000       4.9668478440348    
  6.0000000000000       9.9621605624284    
  6.4000000000000       4.9983810510518    
  6.8000000000000       34.953142065856    
  7.2000000000000       15.023148553291    
  7.6000000000000       4.9983810510518    
  8.0000000000000       2.5194257304996    
  8.4000000000000       25.032906058703    
  8.8000000000000       17.472523667051    
  9.2000000000000       17.466811985039    
  9.6000000000000       27.610478639002    
  10.000000000000       15.037525332970    
  10.400000000000       20.032901742471    
  10.800000000000       12.534849346465    
  11.200000000000       7.5985759658052    
  11.600000000000       17.488416918938    
  12.000000000000       20.062129364382    
  12.400000000000       12.571243487136    
  12.800000000000       12.569437207553    
  13.200000000000       15.100166295669    
  13.600000000000       12.357450115225    
  14.000000000000       14.970891127599    
  14.400000000000       7.4903622909956    
  14.800000000000       14.933496985602    
  15.200000000000       19.955450990121    
  15.600000000000       17.530947667051    
  16.000000000000       20.086855177461    
  16.400000000000       17.544100829242    
  16.800000000000       20.089712872316    
  17.200000000000       24.900016493434    
  17.600000000000       19.943906104769    
  18.000000000000       7.5025843885373    
  18.400000000000       10.020912429716    
  18.800000000000       12.552567995412    
  19.200000000000       39.927166732878    
  19.600000000000       24.966215779606    
  20.000000000000       22.488400564956    
ZONE T= "Xw:     39.4300      Yw:     34.0100      Rw:    0.100000      Zwbot:     10.5000      Zwtop:     11.1000       Specie:  1 "
 0.40000000000000       25.084564314692    
 0.80000000000000       9.9753945832286    
  1.2000000000000       19.969347079970    
  1.6000000000000       32.472773545758    
  2.0000000000000       20.004512246126    
  2.4000000000000       24.949658061512    
  2.8000000000000       45.014054532271    
  3.2000000000000       55.192383348056    
  3.6000000000000       59.843347836586    
  4.0000000000000       34.869385866548    
  4.4000000000000       29.983001365934    
  4.8000000000000       44.852496395496    
  5.2000000000000       54.975660417406    
  5.6000000000000       62.370641293702    
  6.0000000000000       44.869110518754    
  6.4000000000000       22.521586591508    
  6.8000000000000       17.507196681279    
  7.2000000000000       27.461509683382    
  7.6000000000000       35.006362805552    
  8.0000000000000       29.971927033342    
  8.4000000000000       29.863460134028    
  8.8000000000000       24.968427221056    
  9.2000000000000       25.128977615461    
  9.6000000000000       35.131502524491    
  10.000000000000       27.579875940531    