 TITLE="TECPLOT input file: Breakthrough Curves" 
 VARIABLES="Time" "Concentrations" 
ZONE T= "Xw:     39.9300      Yw:     22.4100      Rw:    0.100000      Zwbot:     16.5000      Zwtop:     17.0000       Specie:  1 "
  0.0000000000000       0.0000000000000    
  0.0000000000000       0.0000000000000    
  0.0000000000000       0.0000000000000    
  0.0000000000000       0.0000000000000    
  0.0000000000000       0.0000000000000    
  0.0000000000000       0.0000000000000    
  0.0000000000000       0.0000000000000    
  0.0000000000000       0.0000000000000    
  0.0000000000000       0.0000000000000    
  0.0000000000000       0.0000000000000    
  0.0000000000000       0.0000000000000    
  0.0000000000000       0.0000000000000    
  0.0000000000000       0.0000000000000    
  0.0000000000000       0.0000000000000    
  0.0000000000000       0.0000000000000    
  0.0000000000000       0.0000000000000    
  0.0000000000000       0.0000000000000    
  0.0000000000000       0.0000000000000    
  0.0000000000000       0.0000000000000    
  0.0000000000000       0.0000000000000    
  0.0000000000000       0.0000000000000    
  0.0000000000000       0.0000000000000    
  0.0000000000000       0.0000000000000    
  0.0000000000000       0.0000000000000    
  0.0000000000000       0.0000000000000    
  0.0000000000000       0.0000000000000    
  0.0000000000000       0.0000000000000    
  0.0000000000000       0.0000000000000    
  0.0000000000000       0.0000000000000    
  0.0000000000000       0.0000000000000    
  0.0000000000000       0.0000000000000    
  0.0000000000000       0.0000000000000    
  0.0000000000000       0.0000000000000    
  0.0000000000000       0.0000000000000    
  0.0000000000000       0.0000000000000    
  0.0000000000000       0.0000000000000    
  0.0000000000000       0.0000000000000    
  0.0000000000000       0.0000000000000    
  0.0000000000000       0.0000000000000    
  0.0000000000000       0.0000000000000    
  0.0000000000000       0.0000000000000    
  0.0000000000000       0.0000000000000    
  0.0000000000000       0.0000000000000    
  0.0000000000000       0.0000000000000    
  0.0000000000000       0.0000000000000    
  0.0000000000000       0.0000000000000    
  0.0000000000000       0.0000000000000    
  0.0000000000000       0.0000000000000    
  0.0000000000000       0.0000000000000    
  0.0000000000000       0.0000000000000    
ZONE T= "Xw:     39.9300      Yw:     22.4100      Rw:    0.100000      Zwbot:     13.5000      Zwtop:     14.0000       Specie:  1 "
 0.40000000000000       0.0000000000000    
 0.80000000000000       0.0000000000000    
  1.2000000000000       0.0000000000000    
  1.6000000000000       0.0000000000000    
  2.0000000000000       0.0000000000000    
  2.4000000000000       0.0000000000000    
  2.8000000000000       0.0000000000000    
  3.2000000000000       0.0000000000000    
  3.6000000000000       0.0000000000000    
  4.0000000000000       0.0000000000000    
  4.4000000000000       0.0000000000000    
  4.8000000000000       0.0000000000000    
  5.2000000000000       0.0000000000000    
  5.6000000000000       0.0000000000000    
  6.0000000000000       0.0000000000000    
  6.4000000000000       0.0000000000000    
  6.8000000000000       0.0000000000000    
  7.2000000000000       0.0000000000000    
  7.6000000000000       0.0000000000000    
  8.0000000000000       0.0000000000000    
  8.4000000000000       0.0000000000000    
  8.8000000000000       0.0000000000000    
  9.2000000000000       0.0000000000000    
  9.6000000000000       0.0000000000000    
  10.000000000000       0.0000000000000    
  10.400000000000       0.0000000000000    
  10.800000000000       0.0000000000000    
  11.200000000000       0.0000000000000    
  11.600000000000       0.0000000000000    
  12.000000000000       0.0000000000000    
  12.400000000000       0.0000000000000    
  12.800000000000       0.0000000000000    
  13.200000000000       0.0000000000000    
  13.600000000000       4.9944416285729    
  14.000000000000       0.0000000000000    
  14.400000000000       0.0000000000000    
  14.800000000000       0.0000000000000    
  15.200000000000       7.5188769475053    
  15.600000000000       0.0000000000000    
  16.000000000000       0.0000000000000    
  16.400000000000       2.5062923158351    
  16.800000000000       2.4959765135391    
  17.200000000000       5.0036165265207    
  17.600000000000       9.9908267303619    
  18.000000000000       4.9824673806042    
  18.400000000000       2.4912336903021    
  18.800000000000       9.9772468831600    
  19.200000000000       4.9710665847656    
  19.600000000000       0.0000000000000    
  20.000000000000       4.9992060476275    
ZONE T= "Xw:     39.9300      Yw:     22.3100      Rw:    0.100000      Zwbot:     10.5000      Zwtop:     11.0000       Specie:  1 "
 0.40000000000000       0.0000000000000    
 0.80000000000000       0.0000000000000    
  1.2000000000000       0.0000000000000    
  1.6000000000000       0.0000000000000    
  2.0000000000000       0.0000000000000    
  2.4000000000000       0.0000000000000    
  2.8000000000000       0.0000000000000    
  3.2000000000000       0.0000000000000    
  3.6000000000000       2.4839390547377    
  4.0000000000000       7.4882275627010    
  4.4000000000000       7.5383345016545    
  4.8000000000000       15.059445287277    
  5.2000000000000       2.4839390547377    
  5.6000000000000       2.5189769177280    
  6.0000000000000       2.5189769177280    
  6.4000000000000       12.566620122982    
  6.8000000000000       47.651962589216    
  7.2000000000000       32.517629420099    
  7.6000000000000       19.962971935119    
  8.0000000000000       24.985988993389    
  8.4000000000000       34.967520947219    
  8.8000000000000       32.448968305772    
  9.2000000000000       39.950030980523    
  9.6000000000000       22.477670135885    
  10.000000000000       22.511381402449    
  10.400000000000       40.009953410485    
  10.800000000000       30.030113493140    
  11.200000000000       20.002625639837    
  11.600000000000       37.632972826394    
  12.000000000000       30.088217118833    
  12.400000000000       27.550359850098    
  12.800000000000       27.607874268836    
  13.200000000000       25.104155194287    
  13.600000000000       17.499146121647    
  14.000000000000       30.037978510609    
  14.400000000000       39.980660306335    
  14.800000000000       42.552230951578    
  15.200000000000       20.008829984012    
  15.600000000000       24.952026371617    
  16.000000000000       24.989151365531    
  16.400000000000       4.9634484415647    
  16.800000000000       12.434477375964    
  17.200000000000       14.974273411768    
  17.600000000000       15.002558037136    
  18.000000000000       2.4784228075639    
  18.400000000000       5.0454143218725    
  18.800000000000       7.5711316448987    
  19.200000000000       0.0000000000000    
  19.600000000000       5.0522626877128    
  20.000000000000       0.0000000000000    
ZONE T= "Xw:     40.0300      Yw:     22.4100      Rw:    0.100000      Zwbot:     7.60000      Zwtop:     8.10000       Specie:  1 "
 0.40000000000000       0.0000000000000    
 0.80000000000000       0.0000000000000    
  1.2000000000000       0.0000000000000    
  1.6000000000000       0.0000000000000    
  2.0000000000000       0.0000000000000    
  2.4000000000000       0.0000000000000    
  2.8000000000000       0.0000000000000    
  3.2000000000000       0.0000000000000    
  3.6000000000000       0.0000000000000    
  4.0000000000000       0.0000000000000    
  4.4000000000000       0.0000000000000    
  4.8000000000000       0.0000000000000    
  5.2000000000000       0.0000000000000    
  5.6000000000000       5.0362416845863    
  6.0000000000000       15.007983873788    
  6.4000000000000       10.013885709334    
  6.8000000000000       12.584805253656    
  7.2000000000000       22.603066260189    
  7.6000000000000       37.419481045321    
  8.0000000000000       15.028334786802    
  8.4000000000000       52.464061962109    
  8.8000000000000       32.460148071155    
  9.2000000000000       24.977753155215    
  9.6000000000000       32.544319033232    
  10.000000000000       42.478174158688    
  10.400000000000       34.990788905308    
  10.800000000000       45.106830461271    
  11.200000000000       27.615860750964    
  11.600000000000       47.658790313749    
  12.000000000000       40.000181804262    
  12.400000000000       67.630603970682    
  12.800000000000       39.983420486444    
  13.200000000000       32.542573328805    
  13.600000000000       37.621444984199    
  14.000000000000       37.562885586991    
  14.400000000000       30.008052946287    
  14.800000000000       59.916108236394    
  15.200000000000       44.976049768638    
  15.600000000000       20.027340396662    
  16.000000000000       20.008896250787    
  16.400000000000       27.431509226008    
  16.800000000000       20.007029660069    
  17.200000000000       15.018430132302    
  17.600000000000       12.553020968800    
  18.000000000000       12.470020723007    
  18.400000000000       4.9660688581606    
  18.800000000000       5.0108818307746    
  19.200000000000       7.4949403072522    
  19.600000000000       2.5240854338211    
  20.000000000000       2.4908926735687    
ZONE T= "Xw:     39.9300      Yw:     22.4100      Rw:    0.100000      Zwbot:     4.50000      Zwtop:     5.00000       Specie:  1 "
 0.40000000000000       0.0000000000000    
 0.80000000000000       0.0000000000000    
  1.2000000000000       0.0000000000000    
  1.6000000000000       0.0000000000000    
  2.0000000000000       0.0000000000000    
  2.4000000000000       0.0000000000000    
  2.8000000000000       0.0000000000000    
  3.2000000000000       2.5229774090782    
  3.6000000000000       0.0000000000000    
  4.0000000000000       7.5689322272347    
  4.4000000000000       12.579153598854    
  4.8000000000000       12.519490574627    
  5.2000000000000       5.0204393999429    
  5.6000000000000       20.114573821466    
  6.0000000000000       37.588942442004    
  6.4000000000000       34.956661384172    
  6.8000000000000       32.471628002043    
  7.2000000000000       35.012982775430    
  7.6000000000000       30.052810644281    
  8.0000000000000       7.4994804498899    
  8.4000000000000       54.966634528070    
  8.8000000000000       40.023495373229    
  9.2000000000000       17.490896401805    
  9.6000000000000       39.985682181842    
  10.000000000000       42.385285563366    
  10.400000000000       49.842280875052    
  10.800000000000       69.928941716122    
  11.200000000000       57.322905788960    
  11.600000000000       49.915580856949    
  12.000000000000       45.139769211485    
  12.400000000000       42.508676292281    
  12.800000000000       35.021275595225    
  13.200000000000       42.451905593386    
  13.600000000000       25.074431396796    
  14.000000000000       4.9796402120465    
  14.400000000000       7.4843962808881    
  14.800000000000       9.9456068739099    
  15.200000000000       4.9965548833372    
  15.600000000000       0.0000000000000    
  16.000000000000       7.5455054129189    
  16.400000000000       15.097645639142    
  16.800000000000       9.9818055009081    
  17.200000000000       20.052110196196    
  17.600000000000       17.550534579941    
  18.000000000000       7.5578527156124    
  18.400000000000       0.0000000000000    
  18.800000000000       5.0379968752514    
  19.200000000000       10.051168947282    
  19.600000000000       0.0000000000000    
  20.000000000000       2.5198558403610    
ZONE T= "Xw:     39.8300      Yw:     28.4100      Rw:    0.100000      Zwbot:     16.5000      Zwtop:     17.0000       Specie:  1 "
 0.40000000000000       0.0000000000000    
 0.80000000000000       0.0000000000000    
  1.2000000000000       0.0000000000000    
  1.6000000000000       0.0000000000000    
  2.0000000000000       0.0000000000000    
  2.4000000000000       0.0000000000000    
  2.8000000000000       0.0000000000000    
  3.2000000000000       2.5131472882196    
  3.6000000000000       0.0000000000000    
  4.0000000000000       5.0262945764391    
  4.4000000000000       7.5264258897779    
  4.8000000000000       17.555134557531    
  5.2000000000000       0.0000000000000    
  5.6000000000000       7.5478185859399    
  6.0000000000000       10.026155930773    
  6.4000000000000       9.9884295634539    
  6.8000000000000       5.0275690756585    
  7.2000000000000       7.5210527780486    
  7.6000000000000       15.127751838994    
  8.0000000000000       2.5001313133388    
  8.4000000000000       12.563552174996    
  8.8000000000000       20.154932601808    
  9.2000000000000       12.654189452652    
  9.6000000000000       17.539859048116    
  10.000000000000       19.968228573987    
  10.400000000000       25.056338491383    
  10.800000000000       12.646363699155    
  11.200000000000       35.139520351657    
  11.600000000000       20.014957232825    
  12.000000000000       54.913643525013    
  12.400000000000       32.569359408892    
  12.800000000000       29.881552289216    
  13.200000000000       37.394801467601    
  13.600000000000       14.972761773015    
  14.000000000000       9.9805540714644    
  14.400000000000       12.523091870390    
  14.800000000000       19.820383977426    
  15.200000000000       9.9316323207458    
  15.600000000000       12.454881374402    
  16.000000000000       7.4896389095194    
  16.400000000000       19.986642782874    
  16.800000000000       9.9723223932411    
  17.200000000000       12.419841951898    
  17.600000000000       4.9470785751431    
  18.000000000000       7.4414760683306    
  18.400000000000       5.0069401149047    
  18.800000000000       5.0115042114229    
  19.200000000000       7.5944285031536    
  19.600000000000       7.5764745344675    
  20.000000000000       9.9522967208910    
ZONE T= "Xw:     39.9300      Yw:     28.4100      Rw:    0.100000      Zwbot:     13.5000      Zwtop:     14.0000       Specie:  1 "
 0.40000000000000       0.0000000000000    
 0.80000000000000       0.0000000000000    
  1.2000000000000       0.0000000000000    
  1.6000000000000       0.0000000000000    
  2.0000000000000       0.0000000000000    
  2.4000000000000       0.0000000000000    
  2.8000000000000       0.0000000000000    
  3.2000000000000       0.0000000000000    
  3.6000000000000       0.0000000000000    
  4.0000000000000       0.0000000000000    
  4.4000000000000       0.0000000000000    
  4.8000000000000       0.0000000000000    
  5.2000000000000       0.0000000000000    
  5.6000000000000       0.0000000000000    
  6.0000000000000       0.0000000000000    
  6.4000000000000       0.0000000000000    
  6.8000000000000       0.0000000000000    
  7.2000000000000       0.0000000000000    
  7.6000000000000       0.0000000000000    
  8.0000000000000       0.0000000000000    
  8.4000000000000       0.0000000000000    
  8.8000000000000       0.0000000000000    
  9.2000000000000       0.0000000000000    
  9.6000000000000       0.0000000000000    
  10.000000000000       0.0000000000000    
  10.400000000000       0.0000000000000    
  10.800000000000       0.0000000000000    
  11.200000000000       0.0000000000000    
  11.600000000000       0.0000000000000    
  12.000000000000       0.0000000000000    
  12.400000000000       2.4840385629896    
  12.800000000000       2.4840385629896    
  13.200000000000       2.4840385629896    
  13.600000000000       0.0000000000000    
  14.000000000000       0.0000000000000    
  14.400000000000       9.8824470488508    
  14.800000000000       0.0000000000000    
  15.200000000000       2.4706117622127    
  15.600000000000       7.5603459631398    
  16.000000000000       2.4840385629896    
  16.400000000000       0.0000000000000    
  16.800000000000       9.9591788039323    
  17.200000000000       9.9975704935655    
  17.600000000000       2.5019115410277    
  18.000000000000       22.514996800720    
  18.400000000000       19.870044423207    
  18.800000000000       17.526052472769    
  19.200000000000       7.5047019059647    
  19.600000000000       5.0346157468060    
  20.000000000000       2.5097674418605    
ZONE T= "Xw:     39.8300      Yw:     28.4100      Rw:    0.100000      Zwbot:     10.6000      Zwtop:     11.2000       Specie:  1 "
 0.40000000000000       0.0000000000000    
 0.80000000000000       0.0000000000000    
  1.2000000000000       0.0000000000000    
  1.6000000000000       0.0000000000000    
  2.0000000000000       7.5736400887513    
  2.4000000000000       5.0094324068448    
  2.8000000000000       5.0541371546883    
  3.2000000000000       17.491353505927    
  3.6000000000000       10.067094933451    
  4.0000000000000       14.882950023625    
  4.4000000000000       32.563247543318    
  4.8000000000000       30.054032981362    
  5.2000000000000       17.494544795185    
  5.6000000000000       37.258977737509    
  6.0000000000000       7.4546732650524    
  6.4000000000000       10.033170979932    
  6.8000000000000       32.461260877202    
  7.2000000000000       29.887395264214    
  7.6000000000000       27.491411827659    
  8.0000000000000       27.639013307442    
  8.4000000000000       49.941461413682    
  8.8000000000000       34.924343513761    
  9.2000000000000       30.002049737589    
  9.6000000000000       55.249071011918    
  10.000000000000       27.666019899747    
  10.400000000000       42.545842506425    
  10.800000000000       34.913517855373    
  11.200000000000       50.081861124168    
  11.600000000000       45.170595775875    
  12.000000000000       42.676879334829    
  12.400000000000       17.550436526399    
  12.800000000000       14.959778673118    
  13.200000000000       30.044798190645    
  13.600000000000       15.040605982280    
  14.000000000000       12.566577376672    
  14.400000000000       32.550902790383    
  14.800000000000       15.047927473135    
  15.200000000000       10.048648338476    
  15.600000000000       27.489216673397    
  16.000000000000       24.948453719009    
  16.400000000000       22.489877682259    
  16.800000000000       25.026213159613    
  17.200000000000       10.019815529091    
  17.600000000000       7.4716274554799    
  18.000000000000       14.980206213732    
  18.400000000000       4.9919459241980    
  18.800000000000       2.5026733276462    
  19.200000000000       2.4681820263110    
  19.600000000000       5.0440997390797    
  20.000000000000       2.5301855932339    
ZONE T= "Xw:     39.8300      Yw:     28.4100      Rw:    0.100000      Zwbot:     7.60000      Zwtop:     8.30000       Specie:  1 "
 0.40000000000000       0.0000000000000    
 0.80000000000000       0.0000000000000    
  1.2000000000000       0.0000000000000    
  1.6000000000000       0.0000000000000    
  2.0000000000000       0.0000000000000    
  2.4000000000000       0.0000000000000    
  2.8000000000000       0.0000000000000    
  3.2000000000000       0.0000000000000    
  3.6000000000000       2.5249707073524    
  4.0000000000000       0.0000000000000    
  4.4000000000000       2.5020078892277    
  4.8000000000000       9.9050136564269    
  5.2000000000000       12.450663349568    
  5.6000000000000       0.0000000000000    
  6.0000000000000       14.929650325551    
  6.4000000000000       19.918012552944    
  6.8000000000000       27.487034826406    
  7.2000000000000       24.969964316214    
  7.6000000000000       12.478346127243    
  8.0000000000000       10.065024367580    
  8.4000000000000       14.953339582938    
  8.8000000000000       22.490040748638    
  9.2000000000000       15.035159289793    
  9.6000000000000       17.659900706420    
  10.000000000000       44.984900858489    
  10.400000000000       35.092772258221    
  10.800000000000       37.705772873871    
  11.200000000000       37.557614454647    
  11.600000000000       35.107920827923    
  12.000000000000       22.383181738812    
  12.400000000000       12.484682493760    
  12.800000000000       14.967350768746    
  13.200000000000       19.945489437584    
  13.600000000000       29.971148614319    
  14.000000000000       22.537086186499    
  14.400000000000       15.064736549338    
  14.800000000000       22.300664708039    
  15.200000000000       14.876447984218    
  15.600000000000       47.280529442067    
  16.000000000000       37.476323209750    
  16.400000000000       27.421543336054    
  16.800000000000       50.097914517039    
  17.200000000000       82.817251355459    
  17.600000000000       57.625523202197    
  18.000000000000       52.580639944004    
  18.400000000000       27.535064639724    
  18.800000000000       20.012308366231    
  19.200000000000       22.504317953200    
  19.600000000000       22.423166373847    
  20.000000000000       5.0709806261357    
ZONE T= "Xw:     39.8300      Yw:     28.5100      Rw:    0.100000      Zwbot:     4.50000      Zwtop:     5.00000       Specie:  1 "
 0.40000000000000       0.0000000000000    
 0.80000000000000       10.129301164731    
  1.2000000000000       17.386960523741    
  1.6000000000000       12.618481417147    
  2.0000000000000       12.554968019804    
  2.4000000000000       14.880398831524    
  2.8000000000000       17.535054700230    
  3.2000000000000       5.0207831835788    
  3.6000000000000       19.950599723209    
  4.0000000000000       17.534829373244    
  4.4000000000000       22.410139544985    
  4.8000000000000       37.456506981850    
  5.2000000000000       27.473631755866    
  5.6000000000000       49.995204542548    
  6.0000000000000       39.811436551530    
  6.4000000000000       42.465222282488    
  6.8000000000000       19.928811977530    
  7.2000000000000       52.439568587329    
  7.6000000000000       34.899194577722    
  8.0000000000000       17.481507526510    
  8.4000000000000       29.817169192173    
  8.8000000000000       32.485826273954    
  9.2000000000000       27.579050488120    
  9.6000000000000       32.617498855645    
  10.000000000000       22.520605149324    
  10.400000000000       7.4630938013740    
  10.800000000000       9.9712207905275    
  11.200000000000       12.501678324437    
  11.600000000000       14.990851441105    
  12.000000000000       7.5176976233128    
  12.400000000000       15.093972288284    
  12.800000000000       12.553295404016    
  13.200000000000       20.056515481059    
  13.600000000000       0.0000000000000    
  14.000000000000       0.0000000000000    
  14.400000000000       4.9891477167383    
  14.800000000000       0.0000000000000    
  15.200000000000       2.4689778296155    
  15.600000000000       0.0000000000000    
  16.000000000000       4.9298900351548    
  16.400000000000       0.0000000000000    
  16.800000000000       4.9981688079495    
  17.200000000000       4.9298900351548    
  17.600000000000       2.4863634994471    
  18.000000000000       9.9923142887135    
  18.400000000000       2.4863634994471    
  18.800000000000       0.0000000000000    
  19.200000000000       2.4863634994471    
  19.600000000000       4.9727269988943    
  20.000000000000       0.0000000000000    
ZONE T= "Xw:     39.5300      Yw:     34.0100      Rw:    0.100000      Zwbot:     16.7000      Zwtop:     17.3000       Specie:  1 "
 0.40000000000000       2.5146866211332    
 0.80000000000000       2.5146866211332    
  1.2000000000000       0.0000000000000    
  1.6000000000000       7.4311502048792    
  2.0000000000000       7.4798531468561    
  2.4000000000000       7.5068385519403    
  2.8000000000000       7.4311502048792    
  3.2000000000000       17.445723557330    
  3.6000000000000       12.605056734518    
  4.0000000000000       7.4329965475956    
  4.4000000000000       4.9589291276348    
  4.8000000000000       14.986169295417    
  5.2000000000000       20.016335980626    
  5.6000000000000       7.4599686226353    
  6.0000000000000       17.454801442004    
  6.4000000000000       22.551086329682    
  6.8000000000000       19.896545523008    
  7.2000000000000       7.5302585801027    
  7.6000000000000       17.498664629943    
  8.0000000000000       20.094095701746    
  8.4000000000000       25.099863651661    
  8.8000000000000       12.535070784940    
  9.2000000000000       10.079362430217    
  9.6000000000000       10.097533086322    
  10.000000000000       17.383163680235    
  10.400000000000       17.402835523715    
  10.800000000000       22.591229344332    
  11.200000000000       20.010733591721    
  11.600000000000       32.689624573529    
  12.000000000000       22.549928005626    
  12.400000000000       19.924465881035    
  12.800000000000       32.517446771146    
  13.200000000000       12.565767878864    
  13.600000000000       35.127308884787    
  14.000000000000       22.581412934724    
  14.400000000000       5.0302286921608    
  14.800000000000       2.5156444853491    
  15.200000000000       14.996269330560    
  15.600000000000       17.462184209980    
  16.000000000000       10.049658371098    
  16.400000000000       10.012387495809    
  16.800000000000       12.505278538192    
  17.200000000000       12.469693637514    
  17.600000000000       7.4867051587743    
  18.000000000000       17.403126911429    
  18.400000000000       0.0000000000000    
  18.800000000000       4.9697373301641    
  19.200000000000       15.031188040525    
  19.600000000000       12.509135506573    
  20.000000000000       2.4797087785695    
ZONE T= "Xw:     39.5300      Yw:     34.1100      Rw:    0.100000      Zwbot:     13.5000      Zwtop:     14.0000       Specie:  1 "
 0.40000000000000       0.0000000000000    
 0.80000000000000       0.0000000000000    
  1.2000000000000       0.0000000000000    
  1.6000000000000       0.0000000000000    
  2.0000000000000       0.0000000000000    
  2.4000000000000       7.5368972791673    
  2.8000000000000       0.0000000000000    
  3.2000000000000       2.5122990930558    
  3.6000000000000       0.0000000000000    
  4.0000000000000       2.5241791258049    
  4.4000000000000       0.0000000000000    
  4.8000000000000       10.072956437721    
  5.2000000000000       7.5413624909398    
  5.6000000000000       9.9836185619832    
  6.0000000000000       5.0171833651349    
  6.4000000000000       12.534220889442    
  6.8000000000000       15.091188976741    
  7.2000000000000       12.622253018565    
  7.6000000000000       10.100752309479    
  8.0000000000000       7.5475472577425    
  8.4000000000000       5.0146421462552    
  8.8000000000000       2.5100363022622    
  9.2000000000000       12.484939524535    
  9.6000000000000       15.086581315749    
  10.000000000000       10.098526355940    
  10.400000000000       10.004970343511    
  10.800000000000       9.9128093100671    
  11.200000000000       9.9412470456230    
  11.600000000000       7.5338944805929    
  12.000000000000       32.443535250001    
  12.400000000000       19.990939530019    
  12.800000000000       15.022740163616    
  13.200000000000       9.9856737529429    
  13.600000000000       7.5101057545700    
  14.000000000000       14.960086937705    
  14.400000000000       9.9877274652455    
  14.800000000000       10.023724383511    
  15.200000000000       17.537665671885    
  15.600000000000       0.0000000000000    
  16.000000000000       19.976238979054    
  16.400000000000       5.0079471430266    
  16.800000000000       17.592225817502    
  17.200000000000       12.560664343029    
  17.600000000000       10.044550990648    
  18.000000000000       15.080799580109    
  18.400000000000       19.967587489573    
  18.800000000000       10.009946337319    
  19.200000000000       25.062134044883    
  19.600000000000       47.507348752993    
  20.000000000000       7.5019277209761    
ZONE T= "Xw:     39.4300      Yw:     34.0100      Rw:    0.100000      Zwbot:     10.5000      Zwtop:     11.1000       Specie:  1 "
 0.40000000000000       47.493162871357    
 0.80000000000000       0.0000000000000    
  1.2000000000000       12.541690645104    
  1.6000000000000       12.451884676388    
  2.0000000000000       24.973335638552    
  2.4000000000000       20.064867842448    
  2.8000000000000       17.440113562882    
  3.2000000000000       27.492362983929    
  3.6000000000000       34.919772475967    
  4.0000000000000       32.402263537635    
  4.4000000000000       55.048559570559    
  4.8000000000000       17.564475973234    
  5.2000000000000       35.022782811244    
  5.6000000000000       62.645217536138    
  6.0000000000000       20.004685672867    
  6.4000000000000       40.128674599073    
  6.8000000000000       37.506907487166    
  7.2000000000000       25.040657849572    
  7.6000000000000       19.991983030759    
  8.0000000000000       34.977931964420    
  8.4000000000000       52.425267333789    
  8.8000000000000       45.138261520993    
  9.2000000000000       42.715960561418    
  9.6000000000000       17.500448568925    
  10.000000000000       37.574104872798    