 TITLE="TECPLOT input file: Breakthrough Curves" 
 VARIABLES="Time" "Concentrations" 
ZONE T= "Xw:     39.9300      Yw:     22.4100      Rw:    0.100000      Zwbot:     16.5000      Zwtop:     17.0000       Specie:  1 "
  0.0000000000000       0.0000000000000    
  0.0000000000000       0.0000000000000    
  0.0000000000000       0.0000000000000    
  0.0000000000000       0.0000000000000    
  0.0000000000000       0.0000000000000    
  0.0000000000000       0.0000000000000    
  0.0000000000000       0.0000000000000    
  0.0000000000000       0.0000000000000    
  0.0000000000000       0.0000000000000    
  0.0000000000000       0.0000000000000    
  0.0000000000000       0.0000000000000    
  0.0000000000000       0.0000000000000    
  0.0000000000000       0.0000000000000    
  0.0000000000000       0.0000000000000    
  0.0000000000000       0.0000000000000    
  0.0000000000000       0.0000000000000    
  0.0000000000000       0.0000000000000    
  0.0000000000000       0.0000000000000    
  0.0000000000000       0.0000000000000    
  0.0000000000000       0.0000000000000    
  0.0000000000000       0.0000000000000    
  0.0000000000000       0.0000000000000    
  0.0000000000000       0.0000000000000    
  0.0000000000000       0.0000000000000    
  0.0000000000000       0.0000000000000    
  0.0000000000000       0.0000000000000    
  0.0000000000000       0.0000000000000    
  0.0000000000000       0.0000000000000    
  0.0000000000000       0.0000000000000    
  0.0000000000000       0.0000000000000    
  0.0000000000000       0.0000000000000    
  0.0000000000000       0.0000000000000    
  0.0000000000000       0.0000000000000    
  0.0000000000000       0.0000000000000    
  0.0000000000000       0.0000000000000    
  0.0000000000000       0.0000000000000    
  0.0000000000000       0.0000000000000    
  0.0000000000000       0.0000000000000    
  0.0000000000000       0.0000000000000    
  0.0000000000000       0.0000000000000    
  0.0000000000000       0.0000000000000    
  0.0000000000000       0.0000000000000    
  0.0000000000000       0.0000000000000    
  0.0000000000000       0.0000000000000    
  0.0000000000000       0.0000000000000    
  0.0000000000000       0.0000000000000    
  0.0000000000000       0.0000000000000    
  0.0000000000000       0.0000000000000    
  0.0000000000000       0.0000000000000    
  0.0000000000000       0.0000000000000    
ZONE T= "Xw:     39.9300      Yw:     22.4100      Rw:    0.100000      Zwbot:     13.5000      Zwtop:     14.0000       Specie:  1 "
 0.40000000000000       0.0000000000000    
 0.80000000000000       0.0000000000000    
  1.2000000000000       0.0000000000000    
  1.6000000000000       0.0000000000000    
  2.0000000000000       0.0000000000000    
  2.4000000000000       0.0000000000000    
  2.8000000000000       0.0000000000000    
  3.2000000000000       0.0000000000000    
  3.6000000000000       0.0000000000000    
  4.0000000000000       0.0000000000000    
  4.4000000000000       0.0000000000000    
  4.8000000000000       0.0000000000000    
  5.2000000000000       0.0000000000000    
  5.6000000000000       0.0000000000000    
  6.0000000000000       0.0000000000000    
  6.4000000000000       0.0000000000000    
  6.8000000000000       0.0000000000000    
  7.2000000000000       0.0000000000000    
  7.6000000000000       0.0000000000000    
  8.0000000000000       0.0000000000000    
  8.4000000000000       0.0000000000000    
  8.8000000000000       0.0000000000000    
  9.2000000000000       0.0000000000000    
  9.6000000000000       0.0000000000000    
  10.000000000000       0.0000000000000    
  10.400000000000       0.0000000000000    
  10.800000000000       0.0000000000000    
  11.200000000000       0.0000000000000    
  11.600000000000       0.0000000000000    
  12.000000000000       0.0000000000000    
  12.400000000000       0.0000000000000    
  12.800000000000       0.0000000000000    
  13.200000000000       0.0000000000000    
  13.600000000000       0.0000000000000    
  14.000000000000       0.0000000000000    
  14.400000000000       0.0000000000000    
  14.800000000000       9.9249637587263    
  15.200000000000       2.4791690545304    
  15.600000000000       7.4581033983480    
  16.000000000000       7.4746784795572    
  16.400000000000       7.4623697854051    
  16.800000000000       4.9888463764626    
  17.200000000000       7.4853988314424    
  17.600000000000       7.4932971024046    
  18.000000000000       7.4661386166611    
  18.400000000000       24.889338831143    
  18.800000000000       12.515413985385    
  19.200000000000       9.9619095496608    
  19.600000000000       2.4865249172691    
  20.000000000000       0.0000000000000    
ZONE T= "Xw:     39.9300      Yw:     22.3100      Rw:    0.100000      Zwbot:     10.5000      Zwtop:     11.0000       Specie:  1 "
 0.40000000000000       0.0000000000000    
 0.80000000000000       0.0000000000000    
  1.2000000000000       0.0000000000000    
  1.6000000000000       0.0000000000000    
  2.0000000000000       0.0000000000000    
  2.4000000000000       0.0000000000000    
  2.8000000000000       0.0000000000000    
  3.2000000000000       0.0000000000000    
  3.6000000000000       0.0000000000000    
  4.0000000000000       2.5051499749321    
  4.4000000000000       0.0000000000000    
  4.8000000000000       12.557947989274    
  5.2000000000000       17.612072703824    
  5.6000000000000       4.9744788526023    
  6.0000000000000       12.481093878131    
  6.4000000000000       22.497100008125    
  6.8000000000000       27.556724894145    
  7.2000000000000       12.439819805094    
  7.6000000000000       22.512544094443    
  8.0000000000000       24.986203027623    
  8.4000000000000       9.9458629132975    
  8.8000000000000       25.030011491055    
  9.2000000000000       54.868046481914    
  9.6000000000000       17.519120094751    
  10.000000000000       44.899619941341    
  10.400000000000       29.933171458284    
  10.800000000000       34.935423934013    
  11.200000000000       34.940721520141    
  11.600000000000       42.435673721719    
  12.000000000000       19.895370758493    
  12.400000000000       37.408400543066    
  12.800000000000       37.401019363696    
  13.200000000000       27.448413020586    
  13.600000000000       32.470451356889    
  14.000000000000       17.500907694801    
  14.400000000000       27.434130503421    
  14.800000000000       14.972066380551    
  15.200000000000       14.980663899141    
  15.600000000000       12.502321282094    
  16.000000000000       30.016988271454    
  16.400000000000       15.025748548298    
  16.800000000000       14.892477572010    
  17.200000000000       9.9792416009478    
  17.600000000000       7.5020119140503    
  18.000000000000       4.9798466668641    
  18.400000000000       2.4806761687673    
  18.800000000000       2.4899233334320    
  19.200000000000       2.4899233334320    
  19.600000000000       2.4899233334320    
  20.000000000000       2.4899233334320    
ZONE T= "Xw:     40.0300      Yw:     22.4100      Rw:    0.100000      Zwbot:     7.60000      Zwtop:     8.10000       Specie:  1 "
 0.40000000000000       0.0000000000000    
 0.80000000000000       0.0000000000000    
  1.2000000000000       0.0000000000000    
  1.6000000000000       0.0000000000000    
  2.0000000000000       0.0000000000000    
  2.4000000000000       0.0000000000000    
  2.8000000000000       0.0000000000000    
  3.2000000000000       0.0000000000000    
  3.6000000000000       2.4937378249212    
  4.0000000000000       0.0000000000000    
  4.4000000000000       0.0000000000000    
  4.8000000000000       0.0000000000000    
  5.2000000000000       10.047339154107    
  5.6000000000000       19.921313223628    
  6.0000000000000       5.0347740834650    
  6.4000000000000       27.439841555880    
  6.8000000000000       30.024524643159    
  7.2000000000000       10.012998871805    
  7.6000000000000       32.440422186759    
  8.0000000000000       32.389466175915    
  8.4000000000000       37.412116476385    
  8.8000000000000       17.479889224334    
  9.2000000000000       22.485154287285    
  9.6000000000000       27.448562063912    
  10.000000000000       32.447135347090    
  10.400000000000       52.331595247391    
  10.800000000000       72.295625066726    
  11.200000000000       37.444452918253    
  11.600000000000       57.586604828482    
  12.000000000000       45.242779303995    
  12.400000000000       42.554332883830    
  12.800000000000       54.947266689621    
  13.200000000000       32.425947268373    
  13.600000000000       32.595881337469    
  14.000000000000       27.480163791799    
  14.400000000000       29.916235852104    
  14.800000000000       24.978605678765    
  15.200000000000       42.446616059398    
  15.600000000000       12.437755272488    
  16.000000000000       9.9419672654247    
  16.400000000000       12.422684748787    
  16.800000000000       10.007768001362    
  17.200000000000       27.408680661679    
  17.600000000000       15.014503463107    
  18.000000000000       7.4885370874578    
  18.400000000000       22.533412564504    
  18.800000000000       12.562698701174    
  19.200000000000       2.4928124914624    
  19.600000000000       0.0000000000000    
  20.000000000000       0.0000000000000    
ZONE T= "Xw:     39.9300      Yw:     22.4100      Rw:    0.100000      Zwbot:     4.50000      Zwtop:     5.00000       Specie:  1 "
 0.40000000000000       0.0000000000000    
 0.80000000000000       0.0000000000000    
  1.2000000000000       0.0000000000000    
  1.6000000000000       0.0000000000000    
  2.0000000000000       0.0000000000000    
  2.4000000000000       0.0000000000000    
  2.8000000000000       0.0000000000000    
  3.2000000000000       0.0000000000000    
  3.6000000000000       0.0000000000000    
  4.0000000000000       0.0000000000000    
  4.4000000000000       4.9991083767254    
  4.8000000000000       7.5249040172702    
  5.2000000000000       12.491309094381    
  5.6000000000000       5.0462440475520    
  6.0000000000000       17.582476201421    
  6.4000000000000       12.484564463007    
  6.8000000000000       10.005556411506    
  7.2000000000000       25.034211919563    
  7.6000000000000       20.010002819637    
  8.0000000000000       15.003752409152    
  8.4000000000000       27.548919165325    
  8.8000000000000       20.043028344405    
  9.2000000000000       27.566496941161    
  9.6000000000000       42.443117068818    
  10.000000000000       54.905144414204    
  10.400000000000       22.506558062718    
  10.800000000000       12.494963250628    
  11.200000000000       22.484257774018    
  11.600000000000       14.994838298990    
  12.000000000000       24.979373349738    
  12.400000000000       37.292835993060    
  12.800000000000       9.9841532024657    
  13.200000000000       27.494950735351    
  13.600000000000       17.475495005033    
  14.000000000000       27.360060038631    
  14.400000000000       29.891538423894    
  14.800000000000       24.896524608969    
  15.200000000000       29.874313065696    
  15.600000000000       25.027053480187    
  16.000000000000       29.981802661584    
  16.400000000000       12.471482238682    
  16.800000000000       22.392088495785    
  17.200000000000       9.9441052645901    
  17.600000000000       0.0000000000000    
  18.000000000000       0.0000000000000    
  18.400000000000       0.0000000000000    
  18.800000000000       0.0000000000000    
  19.200000000000       5.0459227226042    
  19.600000000000       7.5688840839064    
  20.000000000000       2.5229613613021    
ZONE T= "Xw:     39.8300      Yw:     28.4100      Rw:    0.100000      Zwbot:     16.5000      Zwtop:     17.0000       Specie:  1 "
 0.40000000000000       0.0000000000000    
 0.80000000000000       0.0000000000000    
  1.2000000000000       0.0000000000000    
  1.6000000000000       0.0000000000000    
  2.0000000000000       0.0000000000000    
  2.4000000000000       0.0000000000000    
  2.8000000000000       0.0000000000000    
  3.2000000000000       0.0000000000000    
  3.6000000000000       7.4978917274012    
  4.0000000000000       0.0000000000000    
  4.4000000000000       2.4651642309918    
  4.8000000000000       0.0000000000000    
  5.2000000000000       0.0000000000000    
  5.6000000000000       2.5148233864276    
  6.0000000000000       5.0230265206812    
  6.4000000000000       12.542028807414    
  6.8000000000000       7.4434645023396    
  7.2000000000000       9.9863213157588    
  7.6000000000000       10.022807430735    
  8.0000000000000       10.030772398156    
  8.4000000000000       5.0279594267836    
  8.8000000000000       9.9618119777001    
  9.2000000000000       14.952546217823    
  9.6000000000000       4.9704357894566    
  10.000000000000       2.5115132603406    
  10.400000000000       2.5097674418605    
  10.800000000000       0.0000000000000    
  11.200000000000       2.4734008621574    
  11.600000000000       10.004572156053    
  12.000000000000       4.9956610804838    
  12.400000000000       5.0150405166605    
  12.800000000000       7.4193535819090    
  13.200000000000       4.9956610804838    
  13.600000000000       4.9627198886767    
  14.000000000000       22.402247957394    
  14.400000000000       22.451944325003    
  14.800000000000       32.239033951142    
  15.200000000000       29.877797501474    
  15.600000000000       14.972935905193    
  16.000000000000       14.898801544957    
  16.400000000000       34.892197373851    
  16.800000000000       17.442427062468    
  17.200000000000       25.080790532520    
  17.600000000000       34.972057772931    
  18.000000000000       5.0673794021285    
  18.400000000000       7.5554867878097    
  18.800000000000       10.092960830934    
  19.200000000000       12.502599943082    
  19.600000000000       15.004851866968    
  20.000000000000       5.0125530034457    
ZONE T= "Xw:     39.9300      Yw:     28.4100      Rw:    0.100000      Zwbot:     13.5000      Zwtop:     14.0000       Specie:  1 "
 0.40000000000000       0.0000000000000    
 0.80000000000000       0.0000000000000    
  1.2000000000000       0.0000000000000    
  1.6000000000000       0.0000000000000    
  2.0000000000000       0.0000000000000    
  2.4000000000000       0.0000000000000    
  2.8000000000000       0.0000000000000    
  3.2000000000000       0.0000000000000    
  3.6000000000000       0.0000000000000    
  4.0000000000000       0.0000000000000    
  4.4000000000000       0.0000000000000    
  4.8000000000000       0.0000000000000    
  5.2000000000000       0.0000000000000    
  5.6000000000000       0.0000000000000    
  6.0000000000000       0.0000000000000    
  6.4000000000000       0.0000000000000    
  6.8000000000000       0.0000000000000    
  7.2000000000000       0.0000000000000    
  7.6000000000000       0.0000000000000    
  8.0000000000000       0.0000000000000    
  8.4000000000000       0.0000000000000    
  8.8000000000000       0.0000000000000    
  9.2000000000000       0.0000000000000    
  9.6000000000000       0.0000000000000    
  10.000000000000       0.0000000000000    
  10.400000000000       2.5191023491842    
  10.800000000000       0.0000000000000    
  11.200000000000       2.5215669635585    
  11.600000000000       5.0406693127427    
  12.000000000000       0.0000000000000    
  12.400000000000       0.0000000000000    
  12.800000000000       0.0000000000000    
  13.200000000000       0.0000000000000    
  13.600000000000       0.0000000000000    
  14.000000000000       2.5158712516026    
  14.400000000000       0.0000000000000    
  14.800000000000       0.0000000000000    
  15.200000000000       0.0000000000000    
  15.600000000000       0.0000000000000    
  16.000000000000       2.5308873398453    
  16.400000000000       5.0525836483213    
  16.800000000000       10.095976265273    
  17.200000000000       2.5308873398453    
  17.600000000000       2.5308873398453    
  18.000000000000       7.5845810776517    
  18.400000000000       5.0536937378064    
  18.800000000000       15.070918519504    
  19.200000000000       5.0617746796906    
  19.600000000000       9.9679396956623    
  20.000000000000       0.0000000000000    
ZONE T= "Xw:     39.8300      Yw:     28.4100      Rw:    0.100000      Zwbot:     10.6000      Zwtop:     11.2000       Specie:  1 "
 0.40000000000000       0.0000000000000    
 0.80000000000000       2.5215669635585    
  1.2000000000000       0.0000000000000    
  1.6000000000000       5.0431339271171    
  2.0000000000000       10.071009078105    
  2.4000000000000       2.5041676295721    
  2.8000000000000       2.4928770013336    
  3.2000000000000       7.5230427543627    
  3.6000000000000       10.059156929441    
  4.0000000000000       35.163799762126    
  4.4000000000000       25.062458196828    
  4.8000000000000       12.492552503061    
  5.2000000000000       5.0316182180192    
  5.6000000000000       25.022930936524    
  6.0000000000000       30.062528065008    
  6.4000000000000       15.014524754373    
  6.8000000000000       29.934991845214    
  7.2000000000000       35.009969618695    
  7.6000000000000       44.828963530052    
  8.0000000000000       27.545663197257    
  8.4000000000000       49.804748524747    
  8.8000000000000       42.499679144830    
  9.2000000000000       47.591966920157    
  9.6000000000000       50.134222986179    
  10.000000000000       47.720657024024    
  10.400000000000       37.646783536058    
  10.800000000000       50.174966946742    
  11.200000000000       35.096334327416    
  11.600000000000       22.412636969786    
  12.000000000000       19.983127619370    
  12.400000000000       17.515664817210    
  12.800000000000       35.056176734531    
  13.200000000000       42.517718984146    
  13.600000000000       34.970445557459    
  14.000000000000       12.533106342363    
  14.400000000000       15.029485162850    
  14.800000000000       30.119674337775    
  15.200000000000       32.466314425457    
  15.600000000000       17.417447935858    
  16.000000000000       7.5421284030251    
  16.400000000000       17.418772286015    
  16.800000000000       20.072814381169    
  17.200000000000       19.764233950953    
  17.600000000000       17.604231956423    
  18.000000000000       0.0000000000000    
  18.400000000000       5.0013725192155    
  18.800000000000       7.4083786069424    
  19.200000000000       0.0000000000000    
  19.600000000000       2.4884073183475    
  20.000000000000       2.4884073183475    
ZONE T= "Xw:     39.8300      Yw:     28.4100      Rw:    0.100000      Zwbot:     7.60000      Zwtop:     8.30000       Specie:  1 "
 0.40000000000000       0.0000000000000    
 0.80000000000000       0.0000000000000    
  1.2000000000000       0.0000000000000    
  1.6000000000000       0.0000000000000    
  2.0000000000000       0.0000000000000    
  2.4000000000000       0.0000000000000    
  2.8000000000000       0.0000000000000    
  3.2000000000000       2.5105385507524    
  3.6000000000000       5.0210771015048    
  4.0000000000000       9.9128525408150    
  4.4000000000000       10.005429784114    
  4.8000000000000       14.930826724726    
  5.2000000000000       12.474294319625    
  5.6000000000000       25.010193456498    
  6.0000000000000       17.494390687261    
  6.4000000000000       12.497536496070    
  6.8000000000000       4.9876806649285    
  7.2000000000000       5.0204952472574    
  7.6000000000000       12.555914211435    
  8.0000000000000       20.091837245424    
  8.4000000000000       19.969275876126    
  8.8000000000000       42.559050617490    
  9.2000000000000       39.988790612790    
  9.6000000000000       42.616191503986    
  10.000000000000       60.013904799989    
  10.400000000000       27.554658417402    
  10.800000000000       32.443561800583    
  11.200000000000       37.567508667334    
  11.600000000000       67.456085452815    
  12.000000000000       40.123527057855    
  12.400000000000       34.798994535202    
  12.800000000000       42.369576306200    
  13.200000000000       14.985273671949    
  13.600000000000       32.418570450387    
  14.000000000000       34.948150340527    
  14.400000000000       24.994091258697    
  14.800000000000       27.238970372285    
  15.200000000000       37.174164276266    
  15.600000000000       39.663880358776    
  16.000000000000       20.003225544861    
  16.400000000000       39.783466321245    
  16.800000000000       47.423846153813    
  17.200000000000       7.5068161687852    
  17.600000000000       25.090891902645    
  18.000000000000       32.519554215209    
  18.400000000000       10.033476884880    
  18.800000000000       15.008869790105    
  19.200000000000       27.609644788585    
  19.600000000000       9.9350427028166    
  20.000000000000       7.5349762647567    
ZONE T= "Xw:     39.8300      Yw:     28.5100      Rw:    0.100000      Zwbot:     4.50000      Zwtop:     5.00000       Specie:  1 "
 0.40000000000000       10.041309330696    
 0.80000000000000       2.4798133018244    
  1.2000000000000       7.5113020682519    
  1.6000000000000       15.003835074714    
  2.0000000000000       5.0284765089678    
  2.4000000000000       27.601967202729    
  2.8000000000000       17.538091411905    
  3.2000000000000       24.933346587374    
  3.6000000000000       42.515730487748    
  4.0000000000000       42.506654295741    
  4.4000000000000       57.259341371982    
  4.8000000000000       37.462535777538    
  5.2000000000000       50.144245964266    
  5.6000000000000       62.208943709379    
  6.0000000000000       52.440681006546    
  6.4000000000000       22.426215392456    
  6.8000000000000       34.898357585627    
  7.2000000000000       32.494299025322    
  7.6000000000000       22.558405445263    
  8.0000000000000       37.320659083896    
  8.4000000000000       22.429743742550    
  8.8000000000000       39.819723419073    
  9.2000000000000       37.446168492707    
  9.6000000000000       44.802509083096    
  10.000000000000       17.528401532830    
  10.400000000000       37.286804015481    
  10.800000000000       40.204393573033    
  11.200000000000       15.103539369791    
  11.600000000000       15.085566916344    
  12.000000000000       10.038155013895    
  12.400000000000       20.087289452687    
  12.800000000000       7.5518921287425    
  13.200000000000       0.0000000000000    
  13.600000000000       0.0000000000000    
  14.000000000000       0.0000000000000    
  14.400000000000       2.5266964635400    
  14.800000000000       2.5266964635400    
  15.200000000000       0.0000000000000    
  15.600000000000       2.5044507259420    
  16.000000000000       2.5044507259420    
  16.400000000000       5.0456127959223    
  16.800000000000       7.5584210811880    
  17.200000000000       7.5800893906201    
  17.600000000000       0.0000000000000    
  18.000000000000       0.0000000000000    
  18.400000000000       0.0000000000000    
  18.800000000000       0.0000000000000    
  19.200000000000       0.0000000000000    
  19.600000000000       0.0000000000000    
  20.000000000000       0.0000000000000    
ZONE T= "Xw:     39.5300      Yw:     34.0100      Rw:    0.100000      Zwbot:     16.7000      Zwtop:     17.3000       Specie:  1 "
 0.40000000000000       0.0000000000000    
 0.80000000000000       0.0000000000000    
  1.2000000000000       5.0048327920731    
  1.6000000000000       2.5083292699546    
  2.0000000000000       2.5083292699546    
  2.4000000000000       4.9920256352667    
  2.8000000000000       15.087640743806    
  3.2000000000000       14.980561514509    
  3.6000000000000       22.556912916553    
  4.0000000000000       22.508657548316    
  4.4000000000000       10.059265342450    
  4.8000000000000       7.5072974701924    
  5.2000000000000       9.9986875875090    
  5.6000000000000       14.997769199710    
  6.0000000000000       14.974598923058    
  6.4000000000000       12.507383623526    
  6.8000000000000       17.534487898006    
  7.2000000000000       7.5368509345317    
  7.6000000000000       22.646804912459    
  8.0000000000000       30.108153717780    
  8.4000000000000       15.157103690969    
  8.8000000000000       25.113168759915    
  9.2000000000000       27.723980586153    
  9.6000000000000       22.591000658417    
  10.000000000000       20.036055500654    
  10.400000000000       10.060988829540    
  10.800000000000       14.959739000007    
  11.200000000000       12.475562671905    
  11.600000000000       7.5006583082368    
  12.000000000000       7.5330393494986    
  12.400000000000       7.5713267842635    
  12.800000000000       5.0521965680908    
  13.200000000000       2.5027820381850    
  13.600000000000       10.056497236362    
  14.000000000000       7.5187755671260    
  14.400000000000       4.9951731767586    
  14.800000000000       10.022918061844    
  15.200000000000       2.4725954924498    
  15.600000000000       10.020908978258    
  16.000000000000       20.083661619385    
  16.400000000000       12.584012147385    
  16.800000000000       12.528667106389    
  17.200000000000       17.473354298885    
  17.600000000000       14.974878842259    
  18.000000000000       7.4518794993086    
  18.400000000000       9.9631578643832    
  18.800000000000       7.4594313068144    
  19.200000000000       2.5013935663093    
  19.600000000000       9.9494371433776    
  20.000000000000       9.9808574997411    
ZONE T= "Xw:     39.5300      Yw:     34.1100      Rw:    0.100000      Zwbot:     13.5000      Zwtop:     14.0000       Specie:  1 "
 0.40000000000000       0.0000000000000    
 0.80000000000000       0.0000000000000    
  1.2000000000000       0.0000000000000    
  1.6000000000000       0.0000000000000    
  2.0000000000000       0.0000000000000    
  2.4000000000000       0.0000000000000    
  2.8000000000000       0.0000000000000    
  3.2000000000000       0.0000000000000    
  3.6000000000000       2.4935188934061    
  4.0000000000000       4.9870377868122    
  4.4000000000000       0.0000000000000    
  4.8000000000000       0.0000000000000    
  5.2000000000000       0.0000000000000    
  5.6000000000000       2.4935188934061    
  6.0000000000000       4.9870377868122    
  6.4000000000000       2.4949693794207    
  6.8000000000000       0.0000000000000    
  7.2000000000000       2.5308017569647    
  7.6000000000000       12.566838492029    
  8.0000000000000       10.027813674261    
  8.4000000000000       29.963082611878    
  8.8000000000000       22.466745504482    
  9.2000000000000       17.444018250917    
  9.6000000000000       29.922661190331    
  10.000000000000       15.016565962614    
  10.400000000000       12.415126137645    
  10.800000000000       2.4744208207820    
  11.200000000000       9.9139530336080    
  11.600000000000       14.932448575220    
  12.000000000000       2.5324649102470    
  12.400000000000       25.098848522912    
  12.800000000000       2.5185987552111    
  13.200000000000       10.074395020844    
  13.600000000000       20.092669284508    
  14.000000000000       7.5004509812165    
  14.400000000000       12.566986629580    
  14.800000000000       15.052987589036    
  15.200000000000       35.038112567286    
  15.600000000000       27.606043090391    
  16.000000000000       22.569950823514    
  16.400000000000       17.529848251663    
  16.800000000000       40.090771521800    
  17.200000000000       42.671527695455    
  17.600000000000       25.077565167823    
  18.000000000000       22.570002967156    
  18.400000000000       5.0055216635008    
  18.800000000000       9.9520986559146    
  19.200000000000       37.392377631126    
  19.600000000000       7.4749891803603    
  20.000000000000       5.0271913240384    
ZONE T= "Xw:     39.4300      Yw:     34.0100      Rw:    0.100000      Zwbot:     10.5000      Zwtop:     11.1000       Specie:  1 "
 0.40000000000000       57.170215433022    
 0.80000000000000       12.488885807787    
  1.2000000000000       14.960304128814    
  1.6000000000000       15.018759348232    
  2.0000000000000       14.953125354477    
  2.4000000000000       44.866296759951    
  2.8000000000000       27.426462138826    
  3.2000000000000       4.9451944808547    
  3.6000000000000       22.422815737115    
  4.0000000000000       25.130017951619    
  4.4000000000000       22.477930626369    
  4.8000000000000       34.918954930847    
  5.2000000000000       34.971089433486    
  5.6000000000000       32.507402739426    
  6.0000000000000       15.027843657553    
  6.4000000000000       32.604553967360    
  6.8000000000000       39.955802977833    
  7.2000000000000       25.079155950708    
  7.6000000000000       34.919677104151    
  8.0000000000000       17.506609561731    
  8.4000000000000       22.472880421294    
  8.8000000000000       27.531387258397    
  9.2000000000000       17.506987963962    
  9.6000000000000       17.526552253523    
  10.000000000000       22.602511186782    