 TITLE="TECPLOT input file: Breakthrough Curves" 
 VARIABLES="Time" "Concentrations" 
ZONE T= "Xw:     39.9300      Yw:     22.4100      Rw:    0.100000      Zwbot:     16.5000      Zwtop:     17.0000       Specie:  1 "
  0.0000000000000       0.0000000000000    
  0.0000000000000       0.0000000000000    
  0.0000000000000       0.0000000000000    
  0.0000000000000       0.0000000000000    
  0.0000000000000       0.0000000000000    
  0.0000000000000       0.0000000000000    
  0.0000000000000       0.0000000000000    
  0.0000000000000       0.0000000000000    
  0.0000000000000       0.0000000000000    
  0.0000000000000       0.0000000000000    
  0.0000000000000       0.0000000000000    
  0.0000000000000       0.0000000000000    
  0.0000000000000       0.0000000000000    
  0.0000000000000       0.0000000000000    
  0.0000000000000       0.0000000000000    
  0.0000000000000       0.0000000000000    
  0.0000000000000       0.0000000000000    
  0.0000000000000       0.0000000000000    
  0.0000000000000       0.0000000000000    
  0.0000000000000       0.0000000000000    
  0.0000000000000       0.0000000000000    
  0.0000000000000       0.0000000000000    
  0.0000000000000       0.0000000000000    
  0.0000000000000       0.0000000000000    
  0.0000000000000       0.0000000000000    
  0.0000000000000       0.0000000000000    
  0.0000000000000       0.0000000000000    
  0.0000000000000       0.0000000000000    
  0.0000000000000       0.0000000000000    
  0.0000000000000       0.0000000000000    
  0.0000000000000       0.0000000000000    
  0.0000000000000       0.0000000000000    
  0.0000000000000       0.0000000000000    
  0.0000000000000       0.0000000000000    
  0.0000000000000       0.0000000000000    
  0.0000000000000       0.0000000000000    
  0.0000000000000       0.0000000000000    
  0.0000000000000       0.0000000000000    
  0.0000000000000       0.0000000000000    
  0.0000000000000       0.0000000000000    
  0.0000000000000       0.0000000000000    
  0.0000000000000       0.0000000000000    
  0.0000000000000       0.0000000000000    
  0.0000000000000       0.0000000000000    
  0.0000000000000       0.0000000000000    
  0.0000000000000       0.0000000000000    
  0.0000000000000       0.0000000000000    
  0.0000000000000       0.0000000000000    
  0.0000000000000       0.0000000000000    
  0.0000000000000       0.0000000000000    
ZONE T= "Xw:     39.9300      Yw:     22.4100      Rw:    0.100000      Zwbot:     13.5000      Zwtop:     14.0000       Specie:  1 "
 0.40000000000000       0.0000000000000    
 0.80000000000000       0.0000000000000    
  1.2000000000000       0.0000000000000    
  1.6000000000000       0.0000000000000    
  2.0000000000000       0.0000000000000    
  2.4000000000000       0.0000000000000    
  2.8000000000000       0.0000000000000    
  3.2000000000000       0.0000000000000    
  3.6000000000000       0.0000000000000    
  4.0000000000000       0.0000000000000    
  4.4000000000000       0.0000000000000    
  4.8000000000000       0.0000000000000    
  5.2000000000000       0.0000000000000    
  5.6000000000000       0.0000000000000    
  6.0000000000000       0.0000000000000    
  6.4000000000000       0.0000000000000    
  6.8000000000000       0.0000000000000    
  7.2000000000000       0.0000000000000    
  7.6000000000000       0.0000000000000    
  8.0000000000000       0.0000000000000    
  8.4000000000000       0.0000000000000    
  8.8000000000000       0.0000000000000    
  9.2000000000000       0.0000000000000    
  9.6000000000000       0.0000000000000    
  10.000000000000       0.0000000000000    
  10.400000000000       0.0000000000000    
  10.800000000000       0.0000000000000    
  11.200000000000       0.0000000000000    
  11.600000000000       0.0000000000000    
  12.000000000000       0.0000000000000    
  12.400000000000       2.5147978077111    
  12.800000000000       5.0295956154223    
  13.200000000000       2.5147978077111    
  13.600000000000       0.0000000000000    
  14.000000000000       0.0000000000000    
  14.400000000000       0.0000000000000    
  14.800000000000       4.9870898275943    
  15.200000000000       2.4935449137971    
  15.600000000000       2.5222359185207    
  16.000000000000       10.088943674083    
  16.400000000000       10.088943674083    
  16.800000000000       0.0000000000000    
  17.200000000000       0.0000000000000    
  17.600000000000       9.9781092053476    
  18.000000000000       4.9918984537727    
  18.400000000000       9.9894092760408    
  18.800000000000       5.0051716841011    
  19.200000000000       7.5022797200452    
  19.600000000000       0.0000000000000    
  20.000000000000       0.0000000000000    
ZONE T= "Xw:     39.9300      Yw:     22.3100      Rw:    0.100000      Zwbot:     10.5000      Zwtop:     11.0000       Specie:  1 "
 0.40000000000000       0.0000000000000    
 0.80000000000000       0.0000000000000    
  1.2000000000000       0.0000000000000    
  1.6000000000000       0.0000000000000    
  2.0000000000000       0.0000000000000    
  2.4000000000000       0.0000000000000    
  2.8000000000000       0.0000000000000    
  3.2000000000000       0.0000000000000    
  3.6000000000000       0.0000000000000    
  4.0000000000000       0.0000000000000    
  4.4000000000000       0.0000000000000    
  4.8000000000000       0.0000000000000    
  5.2000000000000       0.0000000000000    
  5.6000000000000       2.5250175786489    
  6.0000000000000       0.0000000000000    
  6.4000000000000       10.050228476035    
  6.8000000000000       9.9289579809220    
  7.2000000000000       7.4577348933354    
  7.6000000000000       22.419941972628    
  8.0000000000000       24.907870081389    
  8.4000000000000       30.021756844383    
  8.8000000000000       17.610550318216    
  9.2000000000000       34.955635086547    
  9.6000000000000       52.321135216833    
  10.000000000000       42.491008703978    
  10.400000000000       32.545244405249    
  10.800000000000       39.944830674864    
  11.200000000000       20.027501138369    
  11.600000000000       4.9860095686662    
  12.000000000000       49.853284292538    
  12.400000000000       44.858406092326    
  12.800000000000       57.396723693489    
  13.200000000000       27.470572753243    
  13.600000000000       29.908387188507    
  14.000000000000       34.809708768461    
  14.400000000000       22.382087103349    
  14.800000000000       14.971681836922    
  15.200000000000       30.121386829374    
  15.600000000000       17.539675835133    
  16.000000000000       10.018559485768    
  16.400000000000       32.563559902621    
  16.800000000000       15.050899026103    
  17.200000000000       2.5293322013424    
  17.600000000000       10.005398029793    
  18.000000000000       5.0546949349947    
  18.400000000000       15.064062432478    
  18.800000000000       0.0000000000000    
  19.200000000000       2.4833437878301    
  19.600000000000       0.0000000000000    
  20.000000000000       0.0000000000000    
ZONE T= "Xw:     40.0300      Yw:     22.4100      Rw:    0.100000      Zwbot:     7.60000      Zwtop:     8.10000       Specie:  1 "
 0.40000000000000       0.0000000000000    
 0.80000000000000       0.0000000000000    
  1.2000000000000       0.0000000000000    
  1.6000000000000       0.0000000000000    
  2.0000000000000       0.0000000000000    
  2.4000000000000       0.0000000000000    
  2.8000000000000       0.0000000000000    
  3.2000000000000       0.0000000000000    
  3.6000000000000       0.0000000000000    
  4.0000000000000       0.0000000000000    
  4.4000000000000       2.4947156792911    
  4.8000000000000       17.478722837118    
  5.2000000000000       7.4876538172468    
  5.6000000000000       4.9854655757062    
  6.0000000000000       24.940802593296    
  6.4000000000000       27.446096958239    
  6.8000000000000       14.989942577236    
  7.2000000000000       34.862191930108    
  7.6000000000000       22.481198110396    
  8.0000000000000       37.450614938922    
  8.4000000000000       47.484880565830    
  8.8000000000000       27.583132859530    
  9.2000000000000       37.419285234059    
  9.6000000000000       7.4953475003403    
  10.000000000000       47.315787125243    
  10.400000000000       32.498525838777    
  10.800000000000       70.008665031737    
  11.200000000000       67.564730586588    
  11.600000000000       60.018026530492    
  12.000000000000       57.500105850235    
  12.400000000000       37.520026229474    
  12.800000000000       40.029241521895    
  13.200000000000       52.543926767109    
  13.600000000000       14.986198524725    
  14.000000000000       27.509066833414    
  14.400000000000       39.825263608125    
  14.800000000000       37.434896658928    
  15.200000000000       25.091671451724    
  15.600000000000       22.508933041224    
  16.000000000000       34.873463160902    
  16.400000000000       27.396286500475    
  16.800000000000       17.511193484366    
  17.200000000000       15.000365092291    
  17.600000000000       10.036896935037    
  18.000000000000       10.056890109496    
  18.400000000000       9.9719209147666    
  18.800000000000       0.0000000000000    
  19.200000000000       7.4650762595096    
  19.600000000000       2.4834550515219    
  20.000000000000       7.4764258287450    
ZONE T= "Xw:     39.9300      Yw:     22.4100      Rw:    0.100000      Zwbot:     4.50000      Zwtop:     5.00000       Specie:  1 "
 0.40000000000000       0.0000000000000    
 0.80000000000000       0.0000000000000    
  1.2000000000000       0.0000000000000    
  1.6000000000000       0.0000000000000    
  2.0000000000000       0.0000000000000    
  2.4000000000000       0.0000000000000    
  2.8000000000000       0.0000000000000    
  3.2000000000000       0.0000000000000    
  3.6000000000000       0.0000000000000    
  4.0000000000000       0.0000000000000    
  4.4000000000000       2.5020705083130    
  4.8000000000000       7.5517829857078    
  5.2000000000000       7.5214020118619    
  5.6000000000000       10.001376315848    
  6.0000000000000       7.5114966198541    
  6.4000000000000       0.0000000000000    
  6.8000000000000       9.9705039828135    
  7.2000000000000       14.995351191035    
  7.6000000000000       47.592262710307    
  8.0000000000000       42.484706414908    
  8.4000000000000       42.554972030522    
  8.8000000000000       34.919538069460    
  9.2000000000000       14.910667514744    
  9.6000000000000       49.966167307350    
  10.000000000000       45.033358438122    
  10.400000000000       25.135158205239    
  10.800000000000       45.170874403305    
  11.200000000000       30.113929335501    
  11.600000000000       37.616869476509    
  12.000000000000       5.0113338422133    
  12.400000000000       20.061526614198    
  12.800000000000       10.046708425925    
  13.200000000000       25.049730049855    
  13.600000000000       9.9868290200484    
  14.000000000000       7.5294438679331    
  14.400000000000       20.093416909335    
  14.800000000000       12.538078222899    
  15.200000000000       12.537059839806    
  15.600000000000       14.965735788662    
  16.000000000000       25.090115795889    
  16.400000000000       20.049903485405    
  16.800000000000       0.0000000000000    
  17.200000000000       5.0034480780427    
  17.600000000000       9.9910462443046    
  18.000000000000       0.0000000000000    
  18.400000000000       2.4807823786851    
  18.800000000000       4.9615647573703    
  19.200000000000       9.9670137743294    
  19.600000000000       10.008833550347    
  20.000000000000       0.0000000000000    
ZONE T= "Xw:     39.8300      Yw:     28.4100      Rw:    0.100000      Zwbot:     16.5000      Zwtop:     17.0000       Specie:  1 "
 0.40000000000000       0.0000000000000    
 0.80000000000000       0.0000000000000    
  1.2000000000000       0.0000000000000    
  1.6000000000000       0.0000000000000    
  2.0000000000000       0.0000000000000    
  2.4000000000000       0.0000000000000    
  2.8000000000000       0.0000000000000    
  3.2000000000000       0.0000000000000    
  3.6000000000000       2.5352495951529    
  4.0000000000000       0.0000000000000    
  4.4000000000000       0.0000000000000    
  4.8000000000000       0.0000000000000    
  5.2000000000000       7.5722431323163    
  5.6000000000000       2.5352495951529    
  6.0000000000000       0.0000000000000    
  6.4000000000000       0.0000000000000    
  6.8000000000000       9.9979140409048    
  7.2000000000000       9.9942448860687    
  7.6000000000000       14.967531925321    
  8.0000000000000       17.473843702920    
  8.4000000000000       12.529840799201    
  8.8000000000000       17.567579862871    
  9.2000000000000       12.540264812133    
  9.6000000000000       19.912485145110    
  10.000000000000       24.972076591073    
  10.400000000000       37.518028836161    
  10.800000000000       5.0024542311461    
  11.200000000000       29.992800221995    
  11.600000000000       22.563819866817    
  12.000000000000       7.5110149013748    
  12.400000000000       15.022468476113    
  12.800000000000       25.050478051209    
  13.200000000000       24.959813503458    
  13.600000000000       25.094236808070    
  14.000000000000       35.087522921512    
  14.400000000000       29.921195185543    
  14.800000000000       12.507637043564    
  15.200000000000       35.034291315525    
  15.600000000000       20.010028236711    
  16.000000000000       19.900734002344    
  16.400000000000       34.916591057389    
  16.800000000000       17.424923011012    
  17.200000000000       24.823534882738    
  17.600000000000       14.871171690931    
  18.000000000000       2.5016182457781    
  18.400000000000       9.9780319965455    
  18.800000000000       20.001348926316    
  19.200000000000       24.801256183082    
  19.600000000000       22.448359364799    
  20.000000000000       7.4077354590664    
ZONE T= "Xw:     39.9300      Yw:     28.4100      Rw:    0.100000      Zwbot:     13.5000      Zwtop:     14.0000       Specie:  1 "
 0.40000000000000       0.0000000000000    
 0.80000000000000       0.0000000000000    
  1.2000000000000       0.0000000000000    
  1.6000000000000       0.0000000000000    
  2.0000000000000       0.0000000000000    
  2.4000000000000       0.0000000000000    
  2.8000000000000       0.0000000000000    
  3.2000000000000       0.0000000000000    
  3.6000000000000       0.0000000000000    
  4.0000000000000       0.0000000000000    
  4.4000000000000       0.0000000000000    
  4.8000000000000       0.0000000000000    
  5.2000000000000       0.0000000000000    
  5.6000000000000       0.0000000000000    
  6.0000000000000       0.0000000000000    
  6.4000000000000       0.0000000000000    
  6.8000000000000       9.9911685780651    
  7.2000000000000       2.4977921445163    
  7.6000000000000       0.0000000000000    
  8.0000000000000       0.0000000000000    
  8.4000000000000       2.4977921445163    
  8.8000000000000       4.9955842890326    
  9.2000000000000       0.0000000000000    
  9.6000000000000       0.0000000000000    
  10.000000000000       0.0000000000000    
  10.400000000000       0.0000000000000    
  10.800000000000       0.0000000000000    
  11.200000000000       0.0000000000000    
  11.600000000000       0.0000000000000    
  12.000000000000       0.0000000000000    
  12.400000000000       0.0000000000000    
  12.800000000000       0.0000000000000    
  13.200000000000       0.0000000000000    
  13.600000000000       0.0000000000000    
  14.000000000000       0.0000000000000    
  14.400000000000       0.0000000000000    
  14.800000000000       0.0000000000000    
  15.200000000000       0.0000000000000    
  15.600000000000       2.5233033559278    
  16.000000000000       0.0000000000000    
  16.400000000000       0.0000000000000    
  16.800000000000       0.0000000000000    
  17.200000000000       0.0000000000000    
  17.600000000000       0.0000000000000    
  18.000000000000       2.5423938030575    
  18.400000000000       2.5423938030575    
  18.800000000000       4.9612316925858    
  19.200000000000       2.5233033559278    
  19.600000000000       10.102218984299    
  20.000000000000       5.0556122724437    
ZONE T= "Xw:     39.8300      Yw:     28.4100      Rw:    0.100000      Zwbot:     10.6000      Zwtop:     11.2000       Specie:  1 "
 0.40000000000000       0.0000000000000    
 0.80000000000000       0.0000000000000    
  1.2000000000000       0.0000000000000    
  1.6000000000000       2.4713108953950    
  2.0000000000000       0.0000000000000    
  2.4000000000000       12.571549114278    
  2.8000000000000       7.5360904870387    
  3.2000000000000       10.033921986533    
  3.6000000000000       10.022754393604    
  4.0000000000000       17.601186689244    
  4.4000000000000       10.095149815818    
  4.8000000000000       5.0207657423895    
  5.2000000000000       10.021409678928    
  5.6000000000000       7.5045752093848    
  6.0000000000000       14.998644866802    
  6.4000000000000       17.541519631171    
  6.8000000000000       30.050218617662    
  7.2000000000000       39.981489360762    
  7.6000000000000       45.046985522518    
  8.0000000000000       45.068147981832    
  8.4000000000000       67.541207367118    
  8.8000000000000       32.606061056587    
  9.2000000000000       42.721728993372    
  9.6000000000000       15.093048129621    
  10.000000000000       32.546950199030    
  10.400000000000       32.654168490666    
  10.800000000000       42.387427005651    
  11.200000000000       39.933458144990    
  11.600000000000       39.977231770554    
  12.000000000000       35.162737980159    
  12.400000000000       32.441594444973    
  12.800000000000       27.334515114015    
  13.200000000000       29.709430977275    
  13.600000000000       37.474425354990    
  14.000000000000       27.415336304272    
  14.400000000000       24.774008547068    
  14.800000000000       27.353569409964    
  15.200000000000       42.340541185062    
  15.600000000000       29.908733614331    
  16.000000000000       52.331092426271    
  16.400000000000       32.438575209461    
  16.800000000000       24.935549645334    
  17.200000000000       17.534978602816    
  17.600000000000       7.4824474243418    
  18.000000000000       7.4348915223667    
  18.400000000000       2.4731900858840    
  18.800000000000       0.0000000000000    
  19.200000000000       7.5830039851004    
  19.600000000000       12.540723076170    
  20.000000000000       17.592345270707    
ZONE T= "Xw:     39.8300      Yw:     28.4100      Rw:    0.100000      Zwbot:     7.60000      Zwtop:     8.30000       Specie:  1 "
 0.40000000000000       0.0000000000000    
 0.80000000000000       0.0000000000000    
  1.2000000000000       0.0000000000000    
  1.6000000000000       0.0000000000000    
  2.0000000000000       0.0000000000000    
  2.4000000000000       0.0000000000000    
  2.8000000000000       0.0000000000000    
  3.2000000000000       0.0000000000000    
  3.6000000000000       2.5017439420105    
  4.0000000000000       0.0000000000000    
  4.4000000000000       9.8813064361176    
  4.8000000000000       9.9150065972671    
  5.2000000000000       12.407023657226    
  5.6000000000000       12.442873768727    
  6.0000000000000       17.507506910987    
  6.4000000000000       27.496315375304    
  6.8000000000000       20.136042584659    
  7.2000000000000       53.001642315684    
  7.6000000000000       47.582015738181    
  8.0000000000000       54.876716966412    
  8.4000000000000       54.924655242489    
  8.8000000000000       77.551527875910    
  9.2000000000000       47.641851203733    
  9.6000000000000       49.854184626721    
  10.000000000000       62.300191868173    
  10.400000000000       29.758773745271    
  10.800000000000       37.365817430748    
  11.200000000000       30.044836774366    
  11.600000000000       9.9760943955008    
  12.000000000000       24.838334978657    
  12.400000000000       9.9236668785601    
  12.800000000000       17.453178464131    
  13.200000000000       27.481196344928    
  13.600000000000       34.912201056979    
  14.000000000000       42.521158079723    
  14.400000000000       37.741296539398    
  14.800000000000       22.575975658855    
  15.200000000000       35.194624858402    
  15.600000000000       32.518766262750    
  16.000000000000       40.093495816179    
  16.400000000000       25.094040903071    
  16.800000000000       22.657030482377    
  17.200000000000       27.592266198703    
  17.600000000000       32.730795867118    
  18.000000000000       29.905048013770    
  18.400000000000       20.102636507365    
  18.800000000000       9.9880164147731    
  19.200000000000       15.129214295545    
  19.600000000000       20.153378395493    
  20.000000000000       2.5127942027000    
ZONE T= "Xw:     39.8300      Yw:     28.5100      Rw:    0.100000      Zwbot:     4.50000      Zwtop:     5.00000       Specie:  1 "
 0.40000000000000       0.0000000000000    
 0.80000000000000       14.912629095160    
  1.2000000000000       10.048248109161    
  1.6000000000000       37.300281761401    
  2.0000000000000       22.391479804465    
  2.4000000000000       32.585399679618    
  2.8000000000000       19.987971158105    
  3.2000000000000       22.533767406643    
  3.6000000000000       37.455652234825    
  4.0000000000000       42.555812303973    
  4.4000000000000       40.113558087336    
  4.8000000000000       67.820909930413    
  5.2000000000000       65.277527296078    
  5.6000000000000       50.114830752374    
  6.0000000000000       82.382605738972    
  6.4000000000000       55.033699210022    
  6.8000000000000       47.456256104284    
  7.2000000000000       37.396453899520    
  7.6000000000000       47.786600514786    
  8.0000000000000       30.213235024701    
  8.4000000000000       42.689821008479    
  8.8000000000000       32.517027446230    
  9.2000000000000       30.142849846341    
  9.6000000000000       44.971193238830    
  10.000000000000       30.051066274754    
  10.400000000000       22.600669518187    
  10.800000000000       34.994958363421    
  11.200000000000       30.012397299443    
  11.600000000000       14.917556261777    
  12.000000000000       15.067512381463    
  12.400000000000       14.993583580643    
  12.800000000000       9.9352800377902    
  13.200000000000       2.4847731147088    
  13.600000000000       0.0000000000000    
  14.000000000000       0.0000000000000    
  14.400000000000       2.5008086190779    
  14.800000000000       4.9759539931822    
  15.200000000000       2.5008086190779    
  15.600000000000       4.9887856156690    
  16.000000000000       12.478379850416    
  16.400000000000       0.0000000000000    
  16.800000000000       2.5370502743491    
  17.200000000000       0.0000000000000    
  17.600000000000       2.4758193061962    
  18.000000000000       2.4758193061962    
  18.400000000000       0.0000000000000    
  18.800000000000       0.0000000000000    
  19.200000000000       0.0000000000000    
  19.600000000000       0.0000000000000    
  20.000000000000       0.0000000000000    
ZONE T= "Xw:     39.5300      Yw:     34.0100      Rw:    0.100000      Zwbot:     16.7000      Zwtop:     17.3000       Specie:  1 "
 0.40000000000000       0.0000000000000    
 0.80000000000000       2.5105339425637    
  1.2000000000000       12.520312716964    
  1.6000000000000       17.393548178023    
  2.0000000000000       19.980373500062    
  2.4000000000000       2.5105339425637    
  2.8000000000000       2.5105339425637    
  3.2000000000000       14.898178542032    
  3.6000000000000       12.433437755200    
  4.0000000000000       9.9657692590615    
  4.4000000000000       20.034073270795    
  4.8000000000000       22.513907327488    
  5.2000000000000       22.458607330700    
  5.6000000000000       14.901526423766    
  6.0000000000000       24.846112302780    
  6.4000000000000       15.026142828273    
  6.8000000000000       17.502889751951    
  7.2000000000000       14.998479922666    
  7.6000000000000       17.585844288437    
  8.0000000000000       22.530090392833    
  8.4000000000000       7.5004186131499    
  8.8000000000000       12.483172868781    
  9.2000000000000       20.014789351959    
  9.6000000000000       9.9838193278462    
  10.000000000000       27.444478033804    
  10.400000000000       37.297372288159    
  10.800000000000       25.064570615415    
  11.200000000000       25.067066042554    
  11.600000000000       20.076232813819    
  12.000000000000       52.648702939738    
  12.400000000000       30.017358306426    
  12.800000000000       42.421879265580    
  13.200000000000       22.435619113961    
  13.600000000000       15.043797074246    
  14.000000000000       2.5055675741150    
  14.400000000000       15.073018139489    
  14.800000000000       17.480203636774    
  15.200000000000       5.0277958028457    
  15.600000000000       12.456025522072    
  16.000000000000       7.5290380238184    
  16.400000000000       25.101669764595    
  16.800000000000       27.579751838829    
  17.200000000000       25.167204738507    
  17.600000000000       17.598396893170    
  18.000000000000       22.541408921550    
  18.400000000000       10.075064873897    
  18.800000000000       7.5463594270461    
  19.200000000000       12.553956700073    
  19.600000000000       7.5542685707622    
  20.000000000000       2.5289780955416    
ZONE T= "Xw:     39.5300      Yw:     34.1100      Rw:    0.100000      Zwbot:     13.5000      Zwtop:     14.0000       Specie:  1 "
 0.40000000000000       0.0000000000000    
 0.80000000000000       0.0000000000000    
  1.2000000000000       0.0000000000000    
  1.6000000000000       0.0000000000000    
  2.0000000000000       0.0000000000000    
  2.4000000000000       0.0000000000000    
  2.8000000000000       0.0000000000000    
  3.2000000000000       0.0000000000000    
  3.6000000000000       0.0000000000000    
  4.0000000000000       0.0000000000000    
  4.4000000000000       7.4925351580834    
  4.8000000000000       17.507324133158    
  5.2000000000000       4.9881865699060    
  5.6000000000000       4.9881865699060    
  6.0000000000000       10.035860262397    
  6.4000000000000       10.108425258650    
  6.8000000000000       2.5326227582444    
  7.2000000000000       10.037859159426    
  7.6000000000000       0.0000000000000    
  8.0000000000000       15.027142050624    
  8.4000000000000       20.002151145741    
  8.8000000000000       9.9780772619466    
  9.2000000000000       22.419935005817    
  9.6000000000000       4.9697026176768    
  10.000000000000       4.9819676009741    
  10.400000000000       4.9926805202359    
  10.800000000000       12.512971446451    
  11.200000000000       12.442226695267    
  11.600000000000       7.4594558776885    
  12.000000000000       12.417340223998    
  12.400000000000       29.945494371529    
  12.800000000000       20.050238650571    
  13.200000000000       17.513930991338    
  13.600000000000       19.989832741064    
  14.000000000000       17.487710037103    
  14.400000000000       17.467031778893    
  14.800000000000       9.9362442121827    
  15.200000000000       24.857574085015    
  15.600000000000       14.949066028421    
  16.000000000000       14.969504366047    
  16.400000000000       5.0058833731996    
  16.800000000000       19.899576456129    
  17.200000000000       14.997114065407    
  17.600000000000       9.9948175012731    
  18.000000000000       12.393276605958    
  18.400000000000       12.451307998642    
  18.800000000000       14.938108223609    
  19.200000000000       12.432991731028    
  19.600000000000       25.015623980328    
  20.000000000000       12.445618722339    
ZONE T= "Xw:     39.4300      Yw:     34.0100      Rw:    0.100000      Zwbot:     10.5000      Zwtop:     11.1000       Specie:  1 "
 0.40000000000000       17.489325083978    
 0.80000000000000       2.5137113111282    
  1.2000000000000       4.9854551372411    
  1.6000000000000       29.925114503398    
  2.0000000000000       17.507329684087    
  2.4000000000000       15.016237681027    
  2.8000000000000       35.026479362842    
  3.2000000000000       37.464857783604    
  3.6000000000000       20.010081571584    
  4.0000000000000       12.506408077075    
  4.4000000000000       22.446394547783    
  4.8000000000000       24.971709250733    
  5.2000000000000       17.483262435127    
  5.6000000000000       22.439498406577    
  6.0000000000000       49.902602895993    
  6.4000000000000       24.936809166757    
  6.8000000000000       7.5195894577160    
  7.2000000000000       24.975165393808    
  7.6000000000000       20.009286582905    
  8.0000000000000       19.977395545252    
  8.4000000000000       27.576860154756    
  8.8000000000000       25.105082951859    
  9.2000000000000       22.444931769537    
  9.6000000000000       24.990942646600    
  10.000000000000       22.541775121103    