 TITLE="TECPLOT input file: Breakthrough Curves" 
 VARIABLES="Time" "Concentrations" 
ZONE T= "Xw:     39.9300      Yw:     22.4100      Rw:    0.100000      Zwbot:     16.5000      Zwtop:     17.0000       Specie:  1 "
  0.0000000000000       0.0000000000000    
  0.0000000000000       0.0000000000000    
  0.0000000000000       0.0000000000000    
  0.0000000000000       0.0000000000000    
  0.0000000000000       0.0000000000000    
  0.0000000000000       0.0000000000000    
  0.0000000000000       0.0000000000000    
  0.0000000000000       0.0000000000000    
  0.0000000000000       0.0000000000000    
  0.0000000000000       0.0000000000000    
  0.0000000000000       0.0000000000000    
  0.0000000000000       0.0000000000000    
  0.0000000000000       0.0000000000000    
  0.0000000000000       0.0000000000000    
  0.0000000000000       0.0000000000000    
  0.0000000000000       0.0000000000000    
  0.0000000000000       0.0000000000000    
  0.0000000000000       0.0000000000000    
  0.0000000000000       0.0000000000000    
  0.0000000000000       0.0000000000000    
  0.0000000000000       0.0000000000000    
  0.0000000000000       0.0000000000000    
  0.0000000000000       0.0000000000000    
  0.0000000000000       0.0000000000000    
  0.0000000000000       0.0000000000000    
  0.0000000000000       0.0000000000000    
  0.0000000000000       0.0000000000000    
  0.0000000000000       0.0000000000000    
  0.0000000000000       0.0000000000000    
  0.0000000000000       0.0000000000000    
  0.0000000000000       0.0000000000000    
  0.0000000000000       0.0000000000000    
  0.0000000000000       0.0000000000000    
  0.0000000000000       0.0000000000000    
  0.0000000000000       0.0000000000000    
  0.0000000000000       0.0000000000000    
  0.0000000000000       0.0000000000000    
  0.0000000000000       0.0000000000000    
  0.0000000000000       0.0000000000000    
  0.0000000000000       0.0000000000000    
  0.0000000000000       0.0000000000000    
  0.0000000000000       0.0000000000000    
  0.0000000000000       0.0000000000000    
  0.0000000000000       0.0000000000000    
  0.0000000000000       0.0000000000000    
  0.0000000000000       0.0000000000000    
  0.0000000000000       0.0000000000000    
  0.0000000000000       0.0000000000000    
  0.0000000000000       0.0000000000000    
  0.0000000000000       0.0000000000000    
ZONE T= "Xw:     39.9300      Yw:     22.4100      Rw:    0.100000      Zwbot:     13.5000      Zwtop:     14.0000       Specie:  1 "
 0.40000000000000       0.0000000000000    
 0.80000000000000       0.0000000000000    
  1.2000000000000       0.0000000000000    
  1.6000000000000       0.0000000000000    
  2.0000000000000       0.0000000000000    
  2.4000000000000       0.0000000000000    
  2.8000000000000       0.0000000000000    
  3.2000000000000       0.0000000000000    
  3.6000000000000       0.0000000000000    
  4.0000000000000       0.0000000000000    
  4.4000000000000       0.0000000000000    
  4.8000000000000       0.0000000000000    
  5.2000000000000       0.0000000000000    
  5.6000000000000       0.0000000000000    
  6.0000000000000       0.0000000000000    
  6.4000000000000       0.0000000000000    
  6.8000000000000       0.0000000000000    
  7.2000000000000       0.0000000000000    
  7.6000000000000       0.0000000000000    
  8.0000000000000       0.0000000000000    
  8.4000000000000       0.0000000000000    
  8.8000000000000       0.0000000000000    
  9.2000000000000       0.0000000000000    
  9.6000000000000       0.0000000000000    
  10.000000000000       0.0000000000000    
  10.400000000000       0.0000000000000    
  10.800000000000       0.0000000000000    
  11.200000000000       0.0000000000000    
  11.600000000000       0.0000000000000    
  12.000000000000       0.0000000000000    
  12.400000000000       0.0000000000000    
  12.800000000000       0.0000000000000    
  13.200000000000       0.0000000000000    
  13.600000000000       0.0000000000000    
  14.000000000000       2.4797593563646    
  14.400000000000       4.9595187127291    
  14.800000000000       5.0451630393899    
  15.200000000000       15.083002127446    
  15.600000000000       5.0410679433594    
  16.000000000000       5.0369728473289    
  16.400000000000       10.071653791136    
  16.800000000000       5.0241988482235    
  17.200000000000       22.606628664054    
  17.600000000000       12.566737276626    
  18.000000000000       5.0071862301848    
  18.400000000000       7.5560694915891    
  18.800000000000       2.4865842176314    
  19.200000000000       2.5035931150924    
  19.600000000000       12.534817011082    
  20.000000000000       0.0000000000000    
ZONE T= "Xw:     39.9300      Yw:     22.3100      Rw:    0.100000      Zwbot:     10.5000      Zwtop:     11.0000       Specie:  1 "
 0.40000000000000       0.0000000000000    
 0.80000000000000       0.0000000000000    
  1.2000000000000       0.0000000000000    
  1.6000000000000       0.0000000000000    
  2.0000000000000       0.0000000000000    
  2.4000000000000       0.0000000000000    
  2.8000000000000       0.0000000000000    
  3.2000000000000       0.0000000000000    
  3.6000000000000       0.0000000000000    
  4.0000000000000       0.0000000000000    
  4.4000000000000       2.5171146816238    
  4.8000000000000       2.5171146816238    
  5.2000000000000       12.571270866234    
  5.6000000000000       10.054116089605    
  6.0000000000000       10.053314055313    
  6.4000000000000       9.9571590780468    
  6.8000000000000       7.4920321739870    
  7.2000000000000       17.472391221766    
  7.6000000000000       14.903471485835    
  8.0000000000000       9.9522799989165    
  8.4000000000000       22.321128131219    
  8.8000000000000       19.964101132128    
  9.2000000000000       19.948078066261    
  9.6000000000000       17.408242961617    
  10.000000000000       7.4680885207951    
  10.400000000000       17.487348540638    
  10.800000000000       34.965970295438    
  11.200000000000       44.934306231908    
  11.600000000000       47.557190781030    
  12.000000000000       32.350564545202    
  12.400000000000       47.384995339981    
  12.800000000000       44.941867847063    
  13.200000000000       42.390958889716    
  13.600000000000       37.413040604907    
  14.000000000000       22.493184654889    
  14.400000000000       7.4766937838412    
  14.800000000000       22.616165469009    
  15.200000000000       7.5226613579914    
  15.600000000000       20.073460497377    
  16.000000000000       20.050225293330    
  16.400000000000       5.0021488285088    
  16.800000000000       20.014440053102    
  17.200000000000       7.5282361719726    
  17.600000000000       10.063698796802    
  18.000000000000       10.019860117879    
  18.400000000000       4.9801898885667    
  18.800000000000       2.5159246992006    
  19.200000000000       4.9754608934038    
  19.600000000000       0.0000000000000    
  20.000000000000       0.0000000000000    
ZONE T= "Xw:     40.0300      Yw:     22.4100      Rw:    0.100000      Zwbot:     7.60000      Zwtop:     8.10000       Specie:  1 "
 0.40000000000000       0.0000000000000    
 0.80000000000000       0.0000000000000    
  1.2000000000000       0.0000000000000    
  1.6000000000000       0.0000000000000    
  2.0000000000000       0.0000000000000    
  2.4000000000000       0.0000000000000    
  2.8000000000000       0.0000000000000    
  3.2000000000000       0.0000000000000    
  3.6000000000000       0.0000000000000    
  4.0000000000000       0.0000000000000    
  4.4000000000000       0.0000000000000    
  4.8000000000000       0.0000000000000    
  5.2000000000000       0.0000000000000    
  5.6000000000000       0.0000000000000    
  6.0000000000000       9.9983263073133    
  6.4000000000000       9.9186904345722    
  6.8000000000000       12.557145236282    
  7.2000000000000       9.9776767510095    
  7.6000000000000       30.032701589522    
  8.0000000000000       25.006844791637    
  8.4000000000000       37.417432923745    
  8.8000000000000       27.553905444576    
  9.2000000000000       30.034039329533    
  9.6000000000000       39.915665328235    
  10.000000000000       40.008289802443    
  10.400000000000       49.876065708231    
  10.800000000000       40.027215364775    
  11.200000000000       42.568499393514    
  11.600000000000       54.837248486798    
  12.000000000000       80.021782779519    
  12.400000000000       74.986175926591    
  12.800000000000       34.901629254920    
  13.200000000000       49.852007656822    
  13.600000000000       27.418155794203    
  14.000000000000       37.331547516881    
  14.400000000000       30.016441185422    
  14.800000000000       32.532119416883    
  15.200000000000       24.893172407323    
  15.600000000000       39.861962316752    
  16.000000000000       17.437257892136    
  16.400000000000       9.9690799832498    
  16.800000000000       17.466255630971    
  17.200000000000       12.453080275281    
  17.600000000000       17.549917771921    
  18.000000000000       17.563081221527    
  18.400000000000       5.0045517401438    
  18.800000000000       7.4564107277239    
  19.200000000000       0.0000000000000    
  19.600000000000       9.9655189860071    
  20.000000000000       2.4944670425706    
ZONE T= "Xw:     39.9300      Yw:     22.4100      Rw:    0.100000      Zwbot:     4.50000      Zwtop:     5.00000       Specie:  1 "
 0.40000000000000       0.0000000000000    
 0.80000000000000       0.0000000000000    
  1.2000000000000       0.0000000000000    
  1.6000000000000       0.0000000000000    
  2.0000000000000       0.0000000000000    
  2.4000000000000       0.0000000000000    
  2.8000000000000       0.0000000000000    
  3.2000000000000       0.0000000000000    
  3.6000000000000       0.0000000000000    
  4.0000000000000       0.0000000000000    
  4.4000000000000       2.4950257421974    
  4.8000000000000       10.006722024524    
  5.2000000000000       20.012999296229    
  5.6000000000000       4.9535224724994    
  6.0000000000000       12.537975122842    
  6.4000000000000       10.000127669944    
  6.8000000000000       24.915455831417    
  7.2000000000000       37.301744401973    
  7.6000000000000       17.429164738274    
  8.0000000000000       44.903642877447    
  8.4000000000000       52.496418865982    
  8.8000000000000       42.473226062282    
  9.2000000000000       25.053258097154    
  9.6000000000000       22.564286069779    
  10.000000000000       32.435888230690    
  10.400000000000       20.076214525910    
  10.800000000000       30.006719928276    
  11.200000000000       32.404768823177    
  11.600000000000       44.982124072363    
  12.000000000000       49.919176514020    
  12.400000000000       22.481297011792    
  12.800000000000       42.310615922316    
  13.200000000000       12.443729932483    
  13.600000000000       22.461545069279    
  14.000000000000       39.931553077644    
  14.400000000000       14.907015738517    
  14.800000000000       19.882171861202    
  15.200000000000       14.990086734338    
  15.600000000000       9.9511013277871    
  16.000000000000       4.9943685010386    
  16.400000000000       9.9909631863644    
  16.800000000000       5.0118303892232    
  17.200000000000       10.088016819719    
  17.600000000000       7.5513736318491    
  18.000000000000       7.5479247150437    
  18.400000000000       15.065750394747    
  18.800000000000       5.0446110548735    
  19.200000000000       0.0000000000000    
  19.600000000000       0.0000000000000    
  20.000000000000       0.0000000000000    
ZONE T= "Xw:     39.8300      Yw:     28.4100      Rw:    0.100000      Zwbot:     16.5000      Zwtop:     17.0000       Specie:  1 "
 0.40000000000000       0.0000000000000    
 0.80000000000000       0.0000000000000    
  1.2000000000000       0.0000000000000    
  1.6000000000000       0.0000000000000    
  2.0000000000000       0.0000000000000    
  2.4000000000000       0.0000000000000    
  2.8000000000000       0.0000000000000    
  3.2000000000000       0.0000000000000    
  3.6000000000000       0.0000000000000    
  4.0000000000000       5.0518223385632    
  4.4000000000000       0.0000000000000    
  4.8000000000000       5.0007209316396    
  5.2000000000000       5.0109072890284    
  5.6000000000000       5.0330202417896    
  6.0000000000000       4.9699166802247    
  6.4000000000000       14.898745277704    
  6.8000000000000       24.906579373923    
  7.2000000000000       20.031934770765    
  7.6000000000000       12.449866629629    
  8.0000000000000       4.9686706536779    
  8.4000000000000       2.5048342137366    
  8.8000000000000       24.985606454963    
  9.2000000000000       27.466770489798    
  9.6000000000000       22.418075668377    
  10.000000000000       17.402293032001    
  10.400000000000       19.819312406559    
  10.800000000000       22.279506244460    
  11.200000000000       27.275283993503    
  11.600000000000       7.5979519600133    
  12.000000000000       24.738950644220    
  12.400000000000       17.397580132077    
  12.800000000000       14.967173185052    
  13.200000000000       20.012200598756    
  13.600000000000       10.046136901795    
  14.000000000000       4.9923413777362    
  14.400000000000       7.4776086431078    
  14.800000000000       12.582629492265    
  15.200000000000       5.0071795347893    
  15.600000000000       2.4852672653716    
  16.000000000000       5.0320035008212    
  16.400000000000       12.434136010545    
  16.800000000000       4.9594393611091    
  17.200000000000       17.395272061070    
  17.600000000000       14.914524567173    
  18.000000000000       22.408550549390    
  18.400000000000       9.9500137640607    
  18.800000000000       12.436580227258    
  19.200000000000       12.641896172719    
  19.600000000000       17.490813961263    
  20.000000000000       0.0000000000000    
ZONE T= "Xw:     39.9300      Yw:     28.4100      Rw:    0.100000      Zwbot:     13.5000      Zwtop:     14.0000       Specie:  1 "
 0.40000000000000       0.0000000000000    
 0.80000000000000       0.0000000000000    
  1.2000000000000       0.0000000000000    
  1.6000000000000       0.0000000000000    
  2.0000000000000       0.0000000000000    
  2.4000000000000       0.0000000000000    
  2.8000000000000       0.0000000000000    
  3.2000000000000       0.0000000000000    
  3.6000000000000       0.0000000000000    
  4.0000000000000       0.0000000000000    
  4.4000000000000       0.0000000000000    
  4.8000000000000       0.0000000000000    
  5.2000000000000       0.0000000000000    
  5.6000000000000       0.0000000000000    
  6.0000000000000       0.0000000000000    
  6.4000000000000       0.0000000000000    
  6.8000000000000       0.0000000000000    
  7.2000000000000       0.0000000000000    
  7.6000000000000       0.0000000000000    
  8.0000000000000       0.0000000000000    
  8.4000000000000       0.0000000000000    
  8.8000000000000       0.0000000000000    
  9.2000000000000       0.0000000000000    
  9.6000000000000       0.0000000000000    
  10.000000000000       0.0000000000000    
  10.400000000000       5.0241988482235    
  10.800000000000       0.0000000000000    
  11.200000000000       0.0000000000000    
  11.600000000000       2.5135208806129    
  12.000000000000       0.0000000000000    
  12.400000000000       0.0000000000000    
  12.800000000000       2.5120994241117    
  13.200000000000       5.0241988482235    
  13.600000000000       0.0000000000000    
  14.000000000000       0.0000000000000    
  14.400000000000       2.5135208806129    
  14.800000000000       0.0000000000000    
  15.200000000000       7.5020145069260    
  15.600000000000       7.5262918070333    
  16.000000000000       2.5135208806129    
  16.400000000000       7.5277132635344    
  16.800000000000       0.0000000000000    
  17.200000000000       5.0011082431723    
  17.600000000000       7.5319520001366    
  18.000000000000       5.0084152359349    
  18.400000000000       2.5005541215861    
  18.800000000000       2.5005541215861    
  19.200000000000       10.119745726001    
  19.600000000000       5.0349339942092    
  20.000000000000       0.0000000000000    
ZONE T= "Xw:     39.8300      Yw:     28.4100      Rw:    0.100000      Zwbot:     10.6000      Zwtop:     11.2000       Specie:  1 "
 0.40000000000000       0.0000000000000    
 0.80000000000000       0.0000000000000    
  1.2000000000000       0.0000000000000    
  1.6000000000000       0.0000000000000    
  2.0000000000000       2.5037393480641    
  2.4000000000000       2.5176140174913    
  2.8000000000000       5.0213533655554    
  3.2000000000000       17.691180148897    
  3.6000000000000       12.589978839373    
  4.0000000000000       2.4821522475199    
  4.4000000000000       12.467258007578    
  4.8000000000000       12.571452990698    
  5.2000000000000       17.492708637785    
  5.6000000000000       22.492935961110    
  6.0000000000000       17.497856248939    
  6.4000000000000       17.489761474306    
  6.8000000000000       22.630669016750    
  7.2000000000000       37.521747277106    
  7.6000000000000       37.390900681607    
  8.0000000000000       42.428394127843    
  8.4000000000000       42.423158693961    
  8.8000000000000       35.183465971213    
  9.2000000000000       20.024051912114    
  9.6000000000000       37.654917434933    
  10.000000000000       49.939542280210    
  10.400000000000       37.538966593290    
  10.800000000000       22.612596453742    
  11.200000000000       37.403143698690    
  11.600000000000       49.986496166506    
  12.000000000000       27.505023226096    
  12.400000000000       34.802156067910    
  12.800000000000       15.016416331113    
  13.200000000000       20.035822404330    
  13.600000000000       19.923638277704    
  14.000000000000       19.927805650671    
  14.400000000000       32.411708384320    
  14.800000000000       32.556377710893    
  15.200000000000       30.137665528636    
  15.600000000000       25.096547523608    
  16.000000000000       42.638042490635    
  16.400000000000       22.485064022873    
  16.800000000000       5.0636368972726    
  17.200000000000       7.5351449267495    
  17.600000000000       12.424743053346    
  18.000000000000       4.9249020478411    
  18.400000000000       2.4624510239206    
  18.800000000000       4.9658398705779    
  19.200000000000       2.4996344620287    
  19.600000000000       9.9342044114378    
  20.000000000000       7.5031988991483    
ZONE T= "Xw:     39.8300      Yw:     28.4100      Rw:    0.100000      Zwbot:     7.60000      Zwtop:     8.30000       Specie:  1 "
 0.40000000000000       0.0000000000000    
 0.80000000000000       0.0000000000000    
  1.2000000000000       0.0000000000000    
  1.6000000000000       0.0000000000000    
  2.0000000000000       2.4752963295177    
  2.4000000000000       0.0000000000000    
  2.8000000000000       2.4752963295177    
  3.2000000000000       0.0000000000000    
  3.6000000000000       0.0000000000000    
  4.0000000000000       2.4930795668837    
  4.4000000000000       12.438404709023    
  4.8000000000000       17.491129095259    
  5.2000000000000       2.4897225006454    
  5.6000000000000       12.501321390991    
  6.0000000000000       4.9752545972553    
  6.4000000000000       14.946982980448    
  6.8000000000000       42.572051236630    
  7.2000000000000       17.432440771186    
  7.6000000000000       14.958713511790    
  8.0000000000000       15.092206594549    
  8.4000000000000       32.713897180223    
  8.8000000000000       27.681769711878    
  9.2000000000000       40.138004498079    
  9.6000000000000       52.592243421456    
  10.000000000000       42.560313799652    
  10.400000000000       30.073913647320    
  10.800000000000       37.659389163514    
  11.200000000000       57.671464597428    
  11.600000000000       57.590671543875    
  12.000000000000       45.117219619320    
  12.400000000000       67.455466222105    
  12.800000000000       45.022381294843    
  13.200000000000       52.838102052541    
  13.600000000000       55.249746955408    
  14.000000000000       52.952850139304    
  14.400000000000       30.207332700320    
  14.800000000000       35.086428380840    
  15.200000000000       47.660314734642    
  15.600000000000       47.828215824889    
  16.000000000000       37.818185673869    
  16.400000000000       15.051454291983    
  16.800000000000       10.109576858918    
  17.200000000000       35.262236966682    
  17.600000000000       20.129673110223    
  18.000000000000       9.9837170057227    
  18.400000000000       29.804450046006    
  18.800000000000       17.394189491166    
  19.200000000000       22.331946385728    
  19.600000000000       12.383252652979    
  20.000000000000       14.847854424829    
ZONE T= "Xw:     39.8300      Yw:     28.5100      Rw:    0.100000      Zwbot:     4.50000      Zwtop:     5.00000       Specie:  1 "
 0.40000000000000       0.0000000000000    
 0.80000000000000       2.5092144502576    
  1.2000000000000       10.102642196422    
  1.6000000000000       7.5212876676024    
  2.0000000000000       27.638822380717    
  2.4000000000000       30.030819192771    
  2.8000000000000       20.053853906170    
  3.2000000000000       25.189438238684    
  3.6000000000000       30.089473600400    
  4.0000000000000       32.572184739474    
  4.4000000000000       47.703441140379    
  4.8000000000000       42.543864592081    
  5.2000000000000       37.598041571500    
  5.6000000000000       45.139795812660    
  6.0000000000000       35.077308486013    
  6.4000000000000       40.007893738800    
  6.8000000000000       37.395829718432    
  7.2000000000000       54.793763350243    
  7.6000000000000       32.376052402559    
  8.0000000000000       37.348542568644    
  8.4000000000000       72.464816761097    
  8.8000000000000       87.175012270250    
  9.2000000000000       52.319890639256    
  9.6000000000000       45.096698500545    
  10.000000000000       29.922560321751    
  10.400000000000       14.974600789271    
  10.800000000000       19.926455837540    
  11.200000000000       7.5052270339978    
  11.600000000000       14.977337279601    
  12.000000000000       22.551136842837    
  12.400000000000       12.515149015796    
  12.800000000000       5.0025752688683    
  13.200000000000       2.5086087166400    
  13.600000000000       4.9655391025903    
  14.000000000000       2.5039155059851    
  14.400000000000       2.4827695512951    
  14.800000000000       10.014677151539    
  15.200000000000       2.5370214640870    
  15.600000000000       0.0000000000000    
  16.000000000000       0.0000000000000    
  16.400000000000       2.5033589045044    
  16.800000000000       0.0000000000000    
  17.200000000000       0.0000000000000    
  17.600000000000       0.0000000000000    
  18.000000000000       0.0000000000000    
  18.400000000000       0.0000000000000    
  18.800000000000       0.0000000000000    
  19.200000000000       0.0000000000000    
  19.600000000000       0.0000000000000    
  20.000000000000       0.0000000000000    
ZONE T= "Xw:     39.5300      Yw:     34.0100      Rw:    0.100000      Zwbot:     16.7000      Zwtop:     17.3000       Specie:  1 "
 0.40000000000000       0.0000000000000    
 0.80000000000000       0.0000000000000    
  1.2000000000000       7.4323037887417    
  1.6000000000000       4.9578905296225    
  2.0000000000000       4.9548691924945    
  2.4000000000000       12.488700382629    
  2.8000000000000       9.9599939641752    
  3.2000000000000       5.0493376766109    
  3.6000000000000       9.9660366384312    
  4.0000000000000       7.5284499401599    
  4.4000000000000       22.488821586013    
  4.8000000000000       15.095931479434    
  5.2000000000000       7.4953585288675    
  5.6000000000000       2.4968120462281    
  6.0000000000000       17.465209506119    
  6.4000000000000       5.0410506143148    
  6.8000000000000       10.014365433122    
  7.2000000000000       25.019979999229    
  7.6000000000000       9.9763358092651    
  8.0000000000000       12.525032799128    
  8.4000000000000       24.990217388516    
  8.8000000000000       22.409076731666    
  9.2000000000000       30.061264694979    
  9.6000000000000       7.5614034637493    
  10.000000000000       32.498794111720    
  10.400000000000       40.037023989698    
  10.800000000000       24.951893245620    
  11.200000000000       24.986348226734    
  11.600000000000       27.583308544782    
  12.000000000000       15.017024476492    
  12.400000000000       19.884659268084    
  12.800000000000       54.786229093128    
  13.200000000000       37.467252971162    
  13.600000000000       54.879927180783    
  14.000000000000       32.322212051893    
  14.400000000000       39.857396949806    
  14.800000000000       34.881290265157    
  15.200000000000       22.437101360620    
  15.600000000000       14.952372593219    
  16.000000000000       19.988390245275    
  16.400000000000       12.473674055119    
  16.800000000000       12.426750307237    
  17.200000000000       7.4570394125713    
  17.600000000000       9.8877031080029    
  18.000000000000       12.406332514908    
  18.400000000000       4.9659694510489    
  18.800000000000       2.4721646258767    
  19.200000000000       0.0000000000000    
  19.600000000000       7.5692446415983    
  20.000000000000       5.0042377565946    
ZONE T= "Xw:     39.5300      Yw:     34.1100      Rw:    0.100000      Zwbot:     13.5000      Zwtop:     14.0000       Specie:  1 "
 0.40000000000000       0.0000000000000    
 0.80000000000000       0.0000000000000    
  1.2000000000000       0.0000000000000    
  1.6000000000000       0.0000000000000    
  2.0000000000000       0.0000000000000    
  2.4000000000000       0.0000000000000    
  2.8000000000000       2.5162148710265    
  3.2000000000000       5.0324297420530    
  3.6000000000000       5.0170721596867    
  4.0000000000000       0.0000000000000    
  4.4000000000000       0.0000000000000    
  4.8000000000000       0.0000000000000    
  5.2000000000000       7.5025718659806    
  5.6000000000000       5.0221874943837    
  6.0000000000000       0.0000000000000    
  6.4000000000000       2.5162148710265    
  6.8000000000000       0.0000000000000    
  7.2000000000000       2.4764713547065    
  7.6000000000000       2.5056799095126    
  8.0000000000000       2.5250763524818    
  8.4000000000000       4.9529427094130    
  8.8000000000000       7.4500634389056    
  9.2000000000000       7.5179178700716    
  9.6000000000000       20.071372705954    
  10.000000000000       2.4908578744435    
  10.400000000000       0.0000000000000    
  10.800000000000       9.9553234734920    
  11.200000000000       10.085668616193    
  11.600000000000       0.0000000000000    
  12.000000000000       4.9740195054930    
  12.400000000000       22.516326223008    
  12.800000000000       30.086104959780    
  13.200000000000       34.875105130758    
  13.600000000000       15.018614059689    
  14.000000000000       4.9886023703555    
  14.400000000000       17.531031947722    
  14.800000000000       29.908603047295    
  15.200000000000       22.396091034776    
  15.600000000000       19.927192057216    
  16.000000000000       22.462542469195    
  16.400000000000       22.706378572209    
  16.800000000000       17.518046088285    
  17.200000000000       22.592668066920    
  17.600000000000       7.5002671396369    
  18.000000000000       2.4774848651101    
  18.400000000000       10.026554886646    
  18.800000000000       20.031890052866    
  19.200000000000       27.630715596377    
  19.600000000000       15.004950089161    
  20.000000000000       5.0101680173415    
ZONE T= "Xw:     39.4300      Yw:     34.0100      Rw:    0.100000      Zwbot:     10.5000      Zwtop:     11.1000       Specie:  1 "
 0.40000000000000       2.4914286374189    
 0.80000000000000       9.9851129591773    
  1.2000000000000       5.0033734660987    
  1.6000000000000       12.416491041029    
  2.0000000000000       17.559858215950    
  2.4000000000000       24.970158745681    
  2.8000000000000       22.542588071344    
  3.2000000000000       12.547848331004    
  3.6000000000000       39.980137044531    
  4.0000000000000       47.385397200854    
  4.4000000000000       27.358927470448    
  4.8000000000000       29.941221662048    
  5.2000000000000       40.012253026777    
  5.6000000000000       24.961172426500    
  6.0000000000000       49.709262528328    
  6.4000000000000       37.349480469111    
  6.8000000000000       44.963771817080    
  7.2000000000000       29.912734867903    
  7.6000000000000       29.988899069681    
  8.0000000000000       19.920050614578    
  8.4000000000000       45.111964830920    
  8.8000000000000       50.044473557636    
  9.2000000000000       30.010989160293    
  9.6000000000000       35.250231232269    
  10.000000000000       25.020781120043    