 TITLE="TECPLOT input file: Breakthrough Curves" 
 VARIABLES="Time" "Concentrations" 
ZONE T= "Xw:     39.9300      Yw:     22.4100      Rw:    0.100000      Zwbot:     16.5000      Zwtop:     17.0000       Specie:  1 "
  0.0000000000000       0.0000000000000    
  0.0000000000000       0.0000000000000    
  0.0000000000000       0.0000000000000    
  0.0000000000000       0.0000000000000    
  0.0000000000000       0.0000000000000    
  0.0000000000000       0.0000000000000    
  0.0000000000000       0.0000000000000    
  0.0000000000000       0.0000000000000    
  0.0000000000000       0.0000000000000    
  0.0000000000000       0.0000000000000    
  0.0000000000000       0.0000000000000    
  0.0000000000000       0.0000000000000    
  0.0000000000000       0.0000000000000    
  0.0000000000000       0.0000000000000    
  0.0000000000000       0.0000000000000    
  0.0000000000000       0.0000000000000    
  0.0000000000000       0.0000000000000    
  0.0000000000000       0.0000000000000    
  0.0000000000000       0.0000000000000    
  0.0000000000000       0.0000000000000    
  0.0000000000000       0.0000000000000    
  0.0000000000000       0.0000000000000    
  0.0000000000000       0.0000000000000    
  0.0000000000000       0.0000000000000    
  0.0000000000000       0.0000000000000    
  0.0000000000000       0.0000000000000    
  0.0000000000000       0.0000000000000    
  0.0000000000000       0.0000000000000    
  0.0000000000000       0.0000000000000    
  0.0000000000000       0.0000000000000    
  0.0000000000000       0.0000000000000    
  0.0000000000000       0.0000000000000    
  0.0000000000000       0.0000000000000    
  0.0000000000000       0.0000000000000    
  0.0000000000000       0.0000000000000    
  0.0000000000000       0.0000000000000    
  0.0000000000000       0.0000000000000    
  0.0000000000000       0.0000000000000    
  0.0000000000000       0.0000000000000    
  0.0000000000000       0.0000000000000    
  0.0000000000000       0.0000000000000    
  0.0000000000000       0.0000000000000    
  0.0000000000000       0.0000000000000    
  0.0000000000000       0.0000000000000    
  0.0000000000000       0.0000000000000    
  0.0000000000000       0.0000000000000    
  0.0000000000000       0.0000000000000    
  0.0000000000000       0.0000000000000    
  0.0000000000000       0.0000000000000    
  0.0000000000000       0.0000000000000    
ZONE T= "Xw:     39.9300      Yw:     22.4100      Rw:    0.100000      Zwbot:     13.5000      Zwtop:     14.0000       Specie:  1 "
 0.40000000000000       0.0000000000000    
 0.80000000000000       0.0000000000000    
  1.2000000000000       0.0000000000000    
  1.6000000000000       0.0000000000000    
  2.0000000000000       0.0000000000000    
  2.4000000000000       0.0000000000000    
  2.8000000000000       0.0000000000000    
  3.2000000000000       0.0000000000000    
  3.6000000000000       0.0000000000000    
  4.0000000000000       0.0000000000000    
  4.4000000000000       0.0000000000000    
  4.8000000000000       0.0000000000000    
  5.2000000000000       0.0000000000000    
  5.6000000000000       0.0000000000000    
  6.0000000000000       0.0000000000000    
  6.4000000000000       0.0000000000000    
  6.8000000000000       0.0000000000000    
  7.2000000000000       0.0000000000000    
  7.6000000000000       0.0000000000000    
  8.0000000000000       0.0000000000000    
  8.4000000000000       0.0000000000000    
  8.8000000000000       0.0000000000000    
  9.2000000000000       0.0000000000000    
  9.6000000000000       0.0000000000000    
  10.000000000000       0.0000000000000    
  10.400000000000       0.0000000000000    
  10.800000000000       0.0000000000000    
  11.200000000000       0.0000000000000    
  11.600000000000       0.0000000000000    
  12.000000000000       0.0000000000000    
  12.400000000000       0.0000000000000    
  12.800000000000       0.0000000000000    
  13.200000000000       0.0000000000000    
  13.600000000000       0.0000000000000    
  14.000000000000       0.0000000000000    
  14.400000000000       0.0000000000000    
  14.800000000000       12.490767258410    
  15.200000000000       12.453858582049    
  15.600000000000       0.0000000000000    
  16.000000000000       10.023413457013    
  16.400000000000       7.5285658830035    
  16.800000000000       7.5123882592512    
  17.200000000000       12.499280739468    
  17.600000000000       12.513950326676    
  18.000000000000       0.0000000000000    
  18.400000000000       5.0068530722970    
  18.800000000000       12.510824318449    
  19.200000000000       27.545641930739    
  19.600000000000       10.031814032327    
  20.000000000000       24.988085981267    
ZONE T= "Xw:     39.9300      Yw:     22.3100      Rw:    0.100000      Zwbot:     10.5000      Zwtop:     11.0000       Specie:  1 "
 0.40000000000000       0.0000000000000    
 0.80000000000000       0.0000000000000    
  1.2000000000000       0.0000000000000    
  1.6000000000000       0.0000000000000    
  2.0000000000000       0.0000000000000    
  2.4000000000000       0.0000000000000    
  2.8000000000000       0.0000000000000    
  3.2000000000000       0.0000000000000    
  3.6000000000000       0.0000000000000    
  4.0000000000000       0.0000000000000    
  4.4000000000000       0.0000000000000    
  4.8000000000000       5.0000185428775    
  5.2000000000000       0.0000000000000    
  5.6000000000000       5.0000185428775    
  6.0000000000000       7.5092371719652    
  6.4000000000000       10.088909220797    
  6.8000000000000       19.875341325461    
  7.2000000000000       15.017964853897    
  7.6000000000000       32.440937558368    
  8.0000000000000       32.448334922857    
  8.4000000000000       12.439138043198    
  8.8000000000000       24.962459184170    
  9.2000000000000       17.515244923158    
  9.6000000000000       29.939881792641    
  10.000000000000       22.535813197359    
  10.400000000000       27.479821706664    
  10.800000000000       37.435915678838    
  11.200000000000       40.094358377076    
  11.600000000000       25.011196859198    
  12.000000000000       24.968847788267    
  12.400000000000       27.409464420201    
  12.800000000000       9.9866305047712    
  13.200000000000       19.901982256010    
  13.600000000000       30.072918081368    
  14.000000000000       19.960520599277    
  14.400000000000       7.5263920973561    
  14.800000000000       25.128286479457    
  15.200000000000       25.094912580386    
  15.600000000000       32.557866811499    
  16.000000000000       22.493924442905    
  16.400000000000       30.046057517570    
  16.800000000000       24.976190446201    
  17.200000000000       10.052992602899    
  17.600000000000       14.936604326449    
  18.000000000000       10.042452641623    
  18.400000000000       2.4853497034409    
  18.800000000000       0.0000000000000    
  19.200000000000       0.0000000000000    
  19.600000000000       0.0000000000000    
  20.000000000000       2.5153839302019    
ZONE T= "Xw:     40.0300      Yw:     22.4100      Rw:    0.100000      Zwbot:     7.60000      Zwtop:     8.10000       Specie:  1 "
 0.40000000000000       0.0000000000000    
 0.80000000000000       0.0000000000000    
  1.2000000000000       0.0000000000000    
  1.6000000000000       0.0000000000000    
  2.0000000000000       0.0000000000000    
  2.4000000000000       0.0000000000000    
  2.8000000000000       0.0000000000000    
  3.2000000000000       0.0000000000000    
  3.6000000000000       0.0000000000000    
  4.0000000000000       0.0000000000000    
  4.4000000000000       0.0000000000000    
  4.8000000000000       0.0000000000000    
  5.2000000000000       2.4793148209551    
  5.6000000000000       2.5250883270770    
  6.0000000000000       10.033828700744    
  6.4000000000000       2.4868714608136    
  6.8000000000000       14.963116062505    
  7.2000000000000       19.981043575152    
  7.6000000000000       37.446930531083    
  8.0000000000000       39.956268035540    
  8.4000000000000       59.875736656308    
  8.8000000000000       49.755920227580    
  9.2000000000000       47.318317638378    
  9.6000000000000       47.371800007040    
  10.000000000000       62.326683632810    
  10.400000000000       44.953690823139    
  10.800000000000       32.431189838908    
  11.200000000000       50.105257327104    
  11.600000000000       39.989970587002    
  12.000000000000       45.112836992092    
  12.400000000000       34.990029601254    
  12.800000000000       67.551032238144    
  13.200000000000       49.977748541029    
  13.600000000000       35.053973325353    
  14.000000000000       29.897749660057    
  14.400000000000       40.024444725153    
  14.800000000000       29.968353549445    
  15.200000000000       35.086599862815    
  15.600000000000       22.499409827352    
  16.000000000000       22.499575123965    
  16.400000000000       25.022495977536    
  16.800000000000       17.564586206155    
  17.200000000000       22.476503048715    
  17.600000000000       10.057076178920    
  18.000000000000       17.582975052921    
  18.400000000000       12.564784084654    
  18.800000000000       5.0331520623698    
  19.200000000000       12.592662949893    
  19.600000000000       0.0000000000000    
  20.000000000000       9.9456454549648    
ZONE T= "Xw:     39.9300      Yw:     22.4100      Rw:    0.100000      Zwbot:     4.50000      Zwtop:     5.00000       Specie:  1 "
 0.40000000000000       0.0000000000000    
 0.80000000000000       0.0000000000000    
  1.2000000000000       0.0000000000000    
  1.6000000000000       0.0000000000000    
  2.0000000000000       0.0000000000000    
  2.4000000000000       0.0000000000000    
  2.8000000000000       0.0000000000000    
  3.2000000000000       0.0000000000000    
  3.6000000000000       0.0000000000000    
  4.0000000000000       2.5177840583524    
  4.4000000000000       5.0101410267943    
  4.8000000000000       10.072114925071    
  5.2000000000000       0.0000000000000    
  5.6000000000000       10.028530516862    
  6.0000000000000       7.4606143824408    
  6.4000000000000       9.9977719390835    
  6.8000000000000       12.498510877218    
  7.2000000000000       4.9641071428571    
  7.6000000000000       7.5321658175972    
  8.0000000000000       15.031320471028    
  8.4000000000000       5.0087834448343    
  8.8000000000000       22.570915219996    
  9.2000000000000       25.027437444346    
  9.6000000000000       17.540116118955    
  10.000000000000       27.529229300681    
  10.400000000000       34.949487863403    
  10.800000000000       25.047767273832    
  11.200000000000       35.002481751656    
  11.600000000000       20.099754959667    
  12.000000000000       22.610254723420    
  12.400000000000       30.181439791114    
  12.800000000000       20.025356508871    
  13.200000000000       29.879493577812    
  13.600000000000       34.972717831892    
  14.000000000000       14.961856020852    
  14.400000000000       7.4505033367699    
  14.800000000000       12.483725728578    
  15.200000000000       5.0136041740592    
  15.600000000000       9.9961970034394    
  16.000000000000       7.4544512665080    
  16.400000000000       5.0166231506152    
  16.800000000000       12.508913469529    
  17.200000000000       7.5249347259228    
  17.600000000000       0.0000000000000    
  18.000000000000       7.5432178416751    
  18.400000000000       10.004336810335    
  18.800000000000       15.024725899282    
  19.200000000000       2.5113022664124    
  19.600000000000       0.0000000000000    
  20.000000000000       9.9997801329054    
ZONE T= "Xw:     39.8300      Yw:     28.4100      Rw:    0.100000      Zwbot:     16.5000      Zwtop:     17.0000       Specie:  1 "
 0.40000000000000       0.0000000000000    
 0.80000000000000       0.0000000000000    
  1.2000000000000       0.0000000000000    
  1.6000000000000       0.0000000000000    
  2.0000000000000       0.0000000000000    
  2.4000000000000       0.0000000000000    
  2.8000000000000       0.0000000000000    
  3.2000000000000       0.0000000000000    
  3.6000000000000       0.0000000000000    
  4.0000000000000       0.0000000000000    
  4.4000000000000       5.0576465855688    
  4.8000000000000       5.0504182800345    
  5.2000000000000       2.5186891594005    
  5.6000000000000       5.0367174641699    
  6.0000000000000       5.0021240789629    
  6.4000000000000       0.0000000000000    
  6.8000000000000       7.5381365822603    
  7.2000000000000       7.5802728716457    
  7.6000000000000       15.012635174448    
  8.0000000000000       4.9884232630983    
  8.4000000000000       10.120530681393    
  8.8000000000000       20.158561365205    
  9.2000000000000       7.4259625718615    
  9.6000000000000       15.028685648983    
  10.000000000000       7.4973714634744    
  10.400000000000       27.412023050259    
  10.800000000000       32.568110540042    
  11.200000000000       30.260567303953    
  11.600000000000       17.541135996666    
  12.000000000000       20.083349512956    
  12.400000000000       2.4811123309738    
  12.800000000000       17.498447717315    
  13.200000000000       5.0707248019230    
  13.600000000000       7.4793356530045    
  14.000000000000       20.110600980556    
  14.400000000000       17.567364203299    
  14.800000000000       15.010203135745    
  15.200000000000       14.958665785638    
  15.600000000000       15.047490778477    
  16.000000000000       20.084212136403    
  16.400000000000       32.507678656159    
  16.800000000000       25.031486235990    
  17.200000000000       27.499836815231    
  17.600000000000       7.5797287059240    
  18.000000000000       5.0318669535694    
  18.400000000000       20.171890167420    
  18.800000000000       4.9815625942764    
  19.200000000000       7.5185964034725    
  19.600000000000       5.0209007049415    
  20.000000000000       2.5338118085337    
ZONE T= "Xw:     39.9300      Yw:     28.4100      Rw:    0.100000      Zwbot:     13.5000      Zwtop:     14.0000       Specie:  1 "
 0.40000000000000       0.0000000000000    
 0.80000000000000       0.0000000000000    
  1.2000000000000       0.0000000000000    
  1.6000000000000       0.0000000000000    
  2.0000000000000       0.0000000000000    
  2.4000000000000       0.0000000000000    
  2.8000000000000       0.0000000000000    
  3.2000000000000       0.0000000000000    
  3.6000000000000       0.0000000000000    
  4.0000000000000       0.0000000000000    
  4.4000000000000       0.0000000000000    
  4.8000000000000       0.0000000000000    
  5.2000000000000       0.0000000000000    
  5.6000000000000       0.0000000000000    
  6.0000000000000       0.0000000000000    
  6.4000000000000       0.0000000000000    
  6.8000000000000       0.0000000000000    
  7.2000000000000       0.0000000000000    
  7.6000000000000       0.0000000000000    
  8.0000000000000       0.0000000000000    
  8.4000000000000       0.0000000000000    
  8.8000000000000       0.0000000000000    
  9.2000000000000       0.0000000000000    
  9.6000000000000       0.0000000000000    
  10.000000000000       0.0000000000000    
  10.400000000000       0.0000000000000    
  10.800000000000       0.0000000000000    
  11.200000000000       0.0000000000000    
  11.600000000000       0.0000000000000    
  12.000000000000       0.0000000000000    
  12.400000000000       2.4801611693075    
  12.800000000000       0.0000000000000    
  13.200000000000       2.4801611693075    
  13.600000000000       0.0000000000000    
  14.000000000000       2.5292475526966    
  14.400000000000       2.4801611693075    
  14.800000000000       0.0000000000000    
  15.200000000000       2.5292475526966    
  15.600000000000       0.0000000000000    
  16.000000000000       0.0000000000000    
  16.400000000000       0.0000000000000    
  16.800000000000       5.0584951053932    
  17.200000000000       2.5292475526966    
  17.600000000000       5.0584951053932    
  18.000000000000       0.0000000000000    
  18.400000000000       7.4363270382372    
  18.800000000000       9.9801862826374    
  19.200000000000       4.9870839487670    
  19.600000000000       7.5151158029241    
  20.000000000000       7.4280140988665    
ZONE T= "Xw:     39.8300      Yw:     28.4100      Rw:    0.100000      Zwbot:     10.6000      Zwtop:     11.2000       Specie:  1 "
 0.40000000000000       0.0000000000000    
 0.80000000000000       0.0000000000000    
  1.2000000000000       0.0000000000000    
  1.6000000000000       0.0000000000000    
  2.0000000000000       0.0000000000000    
  2.4000000000000       12.457080349376    
  2.8000000000000       4.9948496481423    
  3.2000000000000       4.9591677547688    
  3.6000000000000       4.9948496481423    
  4.0000000000000       10.038052229555    
  4.4000000000000       12.456885689910    
  4.8000000000000       19.886806782711    
  5.2000000000000       27.260513631187    
  5.6000000000000       12.384355970925    
  6.0000000000000       17.261053903982    
  6.4000000000000       12.372782776594    
  6.8000000000000       19.882465518393    
  7.2000000000000       9.9246388636961    
  7.6000000000000       27.444009840909    
  8.0000000000000       42.430460354574    
  8.4000000000000       39.946590239319    
  8.8000000000000       22.300445760289    
  9.2000000000000       17.460387943236    
  9.6000000000000       52.334497497402    
  10.000000000000       29.988843223343    
  10.400000000000       37.470189081617    
  10.800000000000       32.707524743802    
  11.200000000000       22.504606813427    
  11.600000000000       24.918738635831    
  12.000000000000       30.003979599722    
  12.400000000000       29.951801043691    
  12.800000000000       22.371628396248    
  13.200000000000       47.643587035397    
  13.600000000000       22.412307116647    
  14.000000000000       24.959581946499    
  14.400000000000       12.438238350213    
  14.800000000000       22.437806775717    
  15.200000000000       22.442550572147    
  15.600000000000       4.9846476825647    
  16.000000000000       12.460099866781    
  16.400000000000       12.563178491346    
  16.800000000000       12.493030722300    
  17.200000000000       19.917131664033    
  17.600000000000       5.0420852881703    
  18.000000000000       5.0191660894640    
  18.400000000000       2.4886736839950    
  18.800000000000       7.5424439577074    
  19.200000000000       17.621684311568    
  19.600000000000       14.975691590100    
  20.000000000000       0.0000000000000    
ZONE T= "Xw:     39.8300      Yw:     28.4100      Rw:    0.100000      Zwbot:     7.60000      Zwtop:     8.30000       Specie:  1 "
 0.40000000000000       0.0000000000000    
 0.80000000000000       7.5550761962549    
  1.2000000000000       5.0367174641699    
  1.6000000000000       0.0000000000000    
  2.0000000000000       2.5183587320850    
  2.4000000000000       5.0367174641699    
  2.8000000000000       7.4802794725537    
  3.2000000000000       7.5806793450887    
  3.6000000000000       2.5179250778741    
  4.0000000000000       15.000811078561    
  4.4000000000000       12.434133749436    
  4.8000000000000       4.9968378830008    
  5.2000000000000       7.5168514026362    
  5.6000000000000       20.191878324891    
  6.0000000000000       12.449434152261    
  6.4000000000000       32.368457441396    
  6.8000000000000       30.142578651356    
  7.2000000000000       47.299991832892    
  7.6000000000000       62.722875277404    
  8.0000000000000       39.860631510043    
  8.4000000000000       32.219199407071    
  8.8000000000000       54.617749871923    
  9.2000000000000       39.794750973562    
  9.6000000000000       67.187367524430    
  10.000000000000       47.512656015819    
  10.400000000000       42.415262795725    
  10.800000000000       62.404863454400    
  11.200000000000       32.430578097081    
  11.600000000000       57.542802739471    
  12.000000000000       47.544310341701    
  12.400000000000       37.590667410458    
  12.800000000000       32.615180628391    
  13.200000000000       35.179512057372    
  13.600000000000       30.056180111650    
  14.000000000000       27.604491635307    
  14.400000000000       17.545045578479    
  14.800000000000       22.423763456718    
  15.200000000000       27.454471171888    
  15.600000000000       50.050643651925    
  16.000000000000       37.535503771982    
  16.400000000000       35.295555162134    
  16.800000000000       24.823400627496    
  17.200000000000       24.994299028375    
  17.600000000000       32.717538566789    
  18.000000000000       32.426561479162    
  18.400000000000       40.010992929372    
  18.800000000000       39.893318599495    
  19.200000000000       30.108159215425    
  19.600000000000       14.896477643875    
  20.000000000000       0.0000000000000    
ZONE T= "Xw:     39.8300      Yw:     28.5100      Rw:    0.100000      Zwbot:     4.50000      Zwtop:     5.00000       Specie:  1 "
 0.40000000000000       19.899437732963    
 0.80000000000000       4.9479758526283    
  1.2000000000000       14.958680301809    
  1.6000000000000       32.416106894205    
  2.0000000000000       35.057956762663    
  2.4000000000000       27.533446253511    
  2.8000000000000       17.626170699247    
  3.2000000000000       24.896255020653    
  3.6000000000000       37.667722266351    
  4.0000000000000       32.614006251402    
  4.4000000000000       47.624733706512    
  4.8000000000000       24.921476471593    
  5.2000000000000       42.594846331608    
  5.6000000000000       35.174775168620    
  6.0000000000000       30.058233612909    
  6.4000000000000       30.046961077475    
  6.8000000000000       39.983779709915    
  7.2000000000000       32.669798472834    
  7.6000000000000       27.697710094830    
  8.0000000000000       30.164719520262    
  8.4000000000000       50.275516716920    
  8.8000000000000       17.366767250636    
  9.2000000000000       17.481683074680    
  9.6000000000000       15.082842829729    
  10.000000000000       12.598116941325    
  10.400000000000       7.4892551366349    
  10.800000000000       27.531994731257    
  11.200000000000       27.644304385266    
  11.600000000000       12.632864536379    
  12.000000000000       15.015544835859    
  12.400000000000       2.5032418717143    
  12.800000000000       7.4952361520980    
  13.200000000000       7.4330478240253    
  13.600000000000       2.5011024274934    
  14.000000000000       12.438098846386    
  14.400000000000       2.5011024274934    
  14.800000000000       2.4987889392191    
  15.200000000000       0.0000000000000    
  15.600000000000       0.0000000000000    
  16.000000000000       0.0000000000000    
  16.400000000000       7.4834369291392    
  16.800000000000       2.4987889392191    
  17.200000000000       0.0000000000000    
  17.600000000000       0.0000000000000    
  18.000000000000       0.0000000000000    
  18.400000000000       0.0000000000000    
  18.800000000000       0.0000000000000    
  19.200000000000       0.0000000000000    
  19.600000000000       0.0000000000000    
  20.000000000000       0.0000000000000    
ZONE T= "Xw:     39.5300      Yw:     34.0100      Rw:    0.100000      Zwbot:     16.7000      Zwtop:     17.3000       Specie:  1 "
 0.40000000000000       2.4995674542230    
 0.80000000000000       4.9754725147538    
  1.2000000000000       2.5154332183916    
  1.6000000000000       2.4995674542230    
  2.0000000000000       17.624782971468    
  2.4000000000000       10.078293340294    
  2.8000000000000       19.979670129717    
  3.2000000000000       7.5104894696958    
  3.6000000000000       22.627167678263    
  4.0000000000000       17.546156098032    
  4.4000000000000       35.026500523547    
  4.8000000000000       39.984289667781    
  5.2000000000000       27.510921986508    
  5.6000000000000       32.334467720863    
  6.0000000000000       27.454427878855    
  6.4000000000000       30.017106092381    
  6.8000000000000       32.453981919140    
  7.2000000000000       25.025583145665    
  7.6000000000000       22.514273425888    
  8.0000000000000       4.9916184676247    
  8.4000000000000       22.546584344007    
  8.8000000000000       17.485923057825    
  9.2000000000000       14.939404673973    
  9.6000000000000       27.454206978915    
  10.000000000000       19.863265334386    
  10.400000000000       27.356843353857    
  10.800000000000       14.954082712192    
  11.200000000000       15.064526527734    
  11.600000000000       15.055465664719    
  12.000000000000       12.588660990054    
  12.400000000000       5.0106633179494    
  12.800000000000       9.9613763019978    
  13.200000000000       7.4608809379774    
  13.600000000000       7.4584455399179    
  14.000000000000       9.9935887138974    
  14.400000000000       19.953804350977    
  14.800000000000       9.9774065898447    
  15.200000000000       12.518722427244    
  15.600000000000       7.5215976081229    
  16.000000000000       12.527793603487    
  16.400000000000       12.593384191548    
  16.800000000000       12.517027957391    
  17.200000000000       2.5175166038483    
  17.600000000000       15.104521498893    
  18.000000000000       17.656197741768    
  18.400000000000       27.423724510806    
  18.800000000000       12.557916309783    
  19.200000000000       10.074405930370    
  19.600000000000       2.4920298277654    
  20.000000000000       5.0176382448568    
ZONE T= "Xw:     39.5300      Yw:     34.1100      Rw:    0.100000      Zwbot:     13.5000      Zwtop:     14.0000       Specie:  1 "
 0.40000000000000       0.0000000000000    
 0.80000000000000       0.0000000000000    
  1.2000000000000       0.0000000000000    
  1.6000000000000       0.0000000000000    
  2.0000000000000       0.0000000000000    
  2.4000000000000       0.0000000000000    
  2.8000000000000       0.0000000000000    
  3.2000000000000       0.0000000000000    
  3.6000000000000       0.0000000000000    
  4.0000000000000       0.0000000000000    
  4.4000000000000       0.0000000000000    
  4.8000000000000       0.0000000000000    
  5.2000000000000       0.0000000000000    
  5.6000000000000       4.9726521077736    
  6.0000000000000       2.4863260538868    
  6.4000000000000       2.4900063817127    
  6.8000000000000       2.4900063817127    
  7.2000000000000       2.4863260538868    
  7.6000000000000       0.0000000000000    
  8.0000000000000       5.0096444459445    
  8.4000000000000       7.5708488732020    
  8.8000000000000       4.9810440797370    
  9.2000000000000       2.5215360318034    
  9.6000000000000       15.000979271998    
  10.000000000000       2.4754124221316    
  10.400000000000       2.5140374789611    
  10.800000000000       7.4744411353304    
  11.200000000000       14.907027404804    
  11.600000000000       7.4641666066093    
  12.000000000000       15.009073050781    
  12.400000000000       22.525936018813    
  12.800000000000       17.415751341570    
  13.200000000000       24.838805818264    
  13.600000000000       17.367520725273    
  14.000000000000       19.860832619200    
  14.400000000000       7.3998978724064    
  14.800000000000       17.392830596692    
  15.200000000000       24.900175340704    
  15.600000000000       25.027243144178    
  16.000000000000       4.9529102949577    
  16.400000000000       12.482763385274    
  16.800000000000       5.0245849210478    
  17.200000000000       9.9598920381025    
  17.600000000000       17.420660577767    
  18.000000000000       10.029996748274    
  18.400000000000       20.070306272416    
  18.800000000000       22.536031497429    
  19.200000000000       19.998196208046    
  19.600000000000       17.572072832855    
  20.000000000000       7.4880433733474    
ZONE T= "Xw:     39.4300      Yw:     34.0100      Rw:    0.100000      Zwbot:     10.5000      Zwtop:     11.1000       Specie:  1 "
 0.40000000000000       57.565194785130    
 0.80000000000000       24.968447539612    
  1.2000000000000       37.535185675957    
  1.6000000000000       30.090329100141    
  2.0000000000000       17.598041336569    
  2.4000000000000       19.978915804941    
  2.8000000000000       19.974852085338    
  3.2000000000000       22.527464747966    
  3.6000000000000       32.580922235979    
  4.0000000000000       17.516345403555    
  4.4000000000000       45.181520270134    
  4.8000000000000       22.529950362695    
  5.2000000000000       27.551213265453    
  5.6000000000000       34.921790404705    
  6.0000000000000       39.762591670803    
  6.4000000000000       37.522131706237    
  6.8000000000000       40.011997648196    
  7.2000000000000       42.650636690585    
  7.6000000000000       32.399054572200    
  8.0000000000000       27.328145883913    
  8.4000000000000       35.056871396167    
  8.8000000000000       37.366710575444    
  9.2000000000000       22.559089555379    
  9.6000000000000       9.9954007499305    
  10.000000000000       22.474958007407    