 TITLE="TECPLOT input file: Breakthrough Curves" 
 VARIABLES="Time" "Concentrations" 
ZONE T= "Xw:     39.9300      Yw:     22.4100      Rw:    0.100000      Zwbot:     16.5000      Zwtop:     17.0000       Specie:  1 "
  0.0000000000000       0.0000000000000    
  0.0000000000000       0.0000000000000    
  0.0000000000000       0.0000000000000    
  0.0000000000000       0.0000000000000    
  0.0000000000000       0.0000000000000    
  0.0000000000000       0.0000000000000    
  0.0000000000000       0.0000000000000    
  0.0000000000000       0.0000000000000    
  0.0000000000000       0.0000000000000    
  0.0000000000000       0.0000000000000    
  0.0000000000000       0.0000000000000    
  0.0000000000000       0.0000000000000    
  0.0000000000000       0.0000000000000    
  0.0000000000000       0.0000000000000    
  0.0000000000000       0.0000000000000    
  0.0000000000000       0.0000000000000    
  0.0000000000000       0.0000000000000    
  0.0000000000000       0.0000000000000    
  0.0000000000000       0.0000000000000    
  0.0000000000000       0.0000000000000    
  0.0000000000000       0.0000000000000    
  0.0000000000000       0.0000000000000    
  0.0000000000000       0.0000000000000    
  0.0000000000000       0.0000000000000    
  0.0000000000000       0.0000000000000    
  0.0000000000000       0.0000000000000    
  0.0000000000000       0.0000000000000    
  0.0000000000000       0.0000000000000    
  0.0000000000000       0.0000000000000    
  0.0000000000000       0.0000000000000    
  0.0000000000000       0.0000000000000    
  0.0000000000000       0.0000000000000    
  0.0000000000000       0.0000000000000    
  0.0000000000000       0.0000000000000    
  0.0000000000000       0.0000000000000    
  0.0000000000000       0.0000000000000    
  0.0000000000000       0.0000000000000    
  0.0000000000000       0.0000000000000    
  0.0000000000000       0.0000000000000    
  0.0000000000000       0.0000000000000    
  0.0000000000000       0.0000000000000    
  0.0000000000000       0.0000000000000    
  0.0000000000000       0.0000000000000    
  0.0000000000000       0.0000000000000    
  0.0000000000000       0.0000000000000    
  0.0000000000000       0.0000000000000    
  0.0000000000000       0.0000000000000    
  0.0000000000000       0.0000000000000    
  0.0000000000000       0.0000000000000    
  0.0000000000000       0.0000000000000    
ZONE T= "Xw:     39.9300      Yw:     22.4100      Rw:    0.100000      Zwbot:     13.5000      Zwtop:     14.0000       Specie:  1 "
 0.40000000000000       0.0000000000000    
 0.80000000000000       0.0000000000000    
  1.2000000000000       0.0000000000000    
  1.6000000000000       0.0000000000000    
  2.0000000000000       0.0000000000000    
  2.4000000000000       0.0000000000000    
  2.8000000000000       0.0000000000000    
  3.2000000000000       0.0000000000000    
  3.6000000000000       0.0000000000000    
  4.0000000000000       0.0000000000000    
  4.4000000000000       0.0000000000000    
  4.8000000000000       0.0000000000000    
  5.2000000000000       0.0000000000000    
  5.6000000000000       0.0000000000000    
  6.0000000000000       0.0000000000000    
  6.4000000000000       0.0000000000000    
  6.8000000000000       0.0000000000000    
  7.2000000000000       0.0000000000000    
  7.6000000000000       0.0000000000000    
  8.0000000000000       0.0000000000000    
  8.4000000000000       0.0000000000000    
  8.8000000000000       0.0000000000000    
  9.2000000000000       0.0000000000000    
  9.6000000000000       0.0000000000000    
  10.000000000000       0.0000000000000    
  10.400000000000       0.0000000000000    
  10.800000000000       0.0000000000000    
  11.200000000000       0.0000000000000    
  11.600000000000       0.0000000000000    
  12.000000000000       0.0000000000000    
  12.400000000000       0.0000000000000    
  12.800000000000       0.0000000000000    
  13.200000000000       0.0000000000000    
  13.600000000000       0.0000000000000    
  14.000000000000       0.0000000000000    
  14.400000000000       2.5087832183934    
  14.800000000000       5.0175664367869    
  15.200000000000       5.0175664367869    
  15.600000000000       0.0000000000000    
  16.000000000000       10.035132873574    
  16.400000000000       5.0217114505371    
  16.800000000000       2.5108557252685    
  17.200000000000       2.5087832183934    
  17.600000000000       7.5325671758056    
  18.000000000000       0.0000000000000    
  18.400000000000       0.0000000000000    
  18.800000000000       4.9848442947042    
  19.200000000000       2.4924221473521    
  19.600000000000       2.5268744396375    
  20.000000000000       2.5108557252685    
ZONE T= "Xw:     39.9300      Yw:     22.3100      Rw:    0.100000      Zwbot:     10.5000      Zwtop:     11.0000       Specie:  1 "
 0.40000000000000       0.0000000000000    
 0.80000000000000       0.0000000000000    
  1.2000000000000       0.0000000000000    
  1.6000000000000       0.0000000000000    
  2.0000000000000       0.0000000000000    
  2.4000000000000       0.0000000000000    
  2.8000000000000       0.0000000000000    
  3.2000000000000       0.0000000000000    
  3.6000000000000       0.0000000000000    
  4.0000000000000       0.0000000000000    
  4.4000000000000       0.0000000000000    
  4.8000000000000       0.0000000000000    
  5.2000000000000       4.9695877471056    
  5.6000000000000       0.0000000000000    
  6.0000000000000       2.4908594442603    
  6.4000000000000       2.5023537680731    
  6.8000000000000       17.468187202343    
  7.2000000000000       14.901583199278    
  7.6000000000000       2.4840746101769    
  8.0000000000000       9.9771854955998    
  8.4000000000000       2.4938861103597    
  8.8000000000000       25.033151947537    
  9.2000000000000       9.9747255746239    
  9.6000000000000       29.873095224368    
  10.000000000000       32.417875399352    
  10.400000000000       29.997626964899    
  10.800000000000       25.076167979120    
  11.200000000000       27.541473428568    
  11.600000000000       22.429473076499    
  12.000000000000       15.006519173355    
  12.400000000000       37.483939682492    
  12.800000000000       29.961121096972    
  13.200000000000       9.9960757469372    
  13.600000000000       24.972445095197    
  14.000000000000       22.469627436909    
  14.400000000000       19.983814624109    
  14.800000000000       22.599379205642    
  15.200000000000       37.561084470739    
  15.600000000000       4.9616163719073    
  16.000000000000       2.5038789749266    
  16.400000000000       19.996530227386    
  16.800000000000       9.9835464080263    
  17.200000000000       7.5105862186119    
  17.600000000000       0.0000000000000    
  18.000000000000       0.0000000000000    
  18.400000000000       0.0000000000000    
  18.800000000000       0.0000000000000    
  19.200000000000       0.0000000000000    
  19.600000000000       0.0000000000000    
  20.000000000000       0.0000000000000    
ZONE T= "Xw:     40.0300      Yw:     22.4100      Rw:    0.100000      Zwbot:     7.60000      Zwtop:     8.10000       Specie:  1 "
 0.40000000000000       0.0000000000000    
 0.80000000000000       0.0000000000000    
  1.2000000000000       0.0000000000000    
  1.6000000000000       0.0000000000000    
  2.0000000000000       0.0000000000000    
  2.4000000000000       0.0000000000000    
  2.8000000000000       0.0000000000000    
  3.2000000000000       0.0000000000000    
  3.6000000000000       0.0000000000000    
  4.0000000000000       0.0000000000000    
  4.4000000000000       0.0000000000000    
  4.8000000000000       0.0000000000000    
  5.2000000000000       0.0000000000000    
  5.6000000000000       4.9491670626755    
  6.0000000000000       2.5002268450733    
  6.4000000000000       7.4472892071103    
  6.8000000000000       27.429128644519    
  7.2000000000000       17.441444799586    
  7.6000000000000       34.876375942532    
  8.0000000000000       47.500234121824    
  8.4000000000000       57.523205668967    
  8.8000000000000       27.542464033195    
  9.2000000000000       42.563272041671    
  9.6000000000000       27.328353149464    
  10.000000000000       34.920359423510    
  10.400000000000       32.369788179057    
  10.800000000000       47.365872526230    
  11.200000000000       35.034282752010    
  11.600000000000       70.080622792003    
  12.000000000000       47.493340471588    
  12.400000000000       47.407662784500    
  12.800000000000       42.485976435353    
  13.200000000000       37.393671540567    
  13.600000000000       64.981035820223    
  14.000000000000       59.977091170111    
  14.400000000000       52.335352693369    
  14.800000000000       32.507222642935    
  15.200000000000       30.031286121251    
  15.600000000000       25.153190273487    
  16.000000000000       25.083256508048    
  16.400000000000       22.595151914917    
  16.800000000000       12.528334523022    
  17.200000000000       27.526966287789    
  17.600000000000       7.5556805492081    
  18.000000000000       19.995329872265    
  18.400000000000       4.9980093282447    
  18.800000000000       19.984858724891    
  19.200000000000       10.014561552956    
  19.600000000000       22.533078175872    
  20.000000000000       17.558735972265    
ZONE T= "Xw:     39.9300      Yw:     22.4100      Rw:    0.100000      Zwbot:     4.50000      Zwtop:     5.00000       Specie:  1 "
 0.40000000000000       0.0000000000000    
 0.80000000000000       0.0000000000000    
  1.2000000000000       0.0000000000000    
  1.6000000000000       0.0000000000000    
  2.0000000000000       0.0000000000000    
  2.4000000000000       0.0000000000000    
  2.8000000000000       0.0000000000000    
  3.2000000000000       0.0000000000000    
  3.6000000000000       0.0000000000000    
  4.0000000000000       0.0000000000000    
  4.4000000000000       2.4814998019188    
  4.8000000000000       10.043487923020    
  5.2000000000000       22.526218319526    
  5.6000000000000       12.509975506750    
  6.0000000000000       7.4910966081853    
  6.4000000000000       32.513373188851    
  6.8000000000000       17.485569221041    
  7.2000000000000       32.524539074023    
  7.6000000000000       22.562569151858    
  8.0000000000000       30.123454994018    
  8.4000000000000       32.539709065615    
  8.8000000000000       37.576691402577    
  9.2000000000000       27.497864574069    
  9.6000000000000       22.449898734003    
  10.000000000000       42.502001508136    
  10.400000000000       29.905312560655    
  10.800000000000       34.953203516934    
  11.200000000000       37.492438732290    
  11.600000000000       54.933784376821    
  12.000000000000       35.020674108849    
  12.400000000000       32.545142643116    
  12.800000000000       25.034863974071    
  13.200000000000       24.969855842887    
  13.600000000000       12.502636891200    
  14.000000000000       17.517273469867    
  14.400000000000       15.049906525559    
  14.800000000000       2.5183061879259    
  15.200000000000       0.0000000000000    
  15.600000000000       0.0000000000000    
  16.000000000000       2.4845153904599    
  16.400000000000       0.0000000000000    
  16.800000000000       0.0000000000000    
  17.200000000000       7.4705710445386    
  17.600000000000       2.4901903481795    
  18.000000000000       0.0000000000000    
  18.400000000000       2.5099865599628    
  18.800000000000       2.5099865599628    
  19.200000000000       2.4849666409385    
  19.600000000000       4.9699332818769    
  20.000000000000       0.0000000000000    
ZONE T= "Xw:     39.8300      Yw:     28.4100      Rw:    0.100000      Zwbot:     16.5000      Zwtop:     17.0000       Specie:  1 "
 0.40000000000000       0.0000000000000    
 0.80000000000000       0.0000000000000    
  1.2000000000000       0.0000000000000    
  1.6000000000000       0.0000000000000    
  2.0000000000000       0.0000000000000    
  2.4000000000000       0.0000000000000    
  2.8000000000000       0.0000000000000    
  3.2000000000000       0.0000000000000    
  3.6000000000000       0.0000000000000    
  4.0000000000000       2.5147413743945    
  4.4000000000000       0.0000000000000    
  4.8000000000000       7.5211479378082    
  5.2000000000000       15.075735050309    
  5.6000000000000       15.009590129741    
  6.0000000000000       4.9537682051791    
  6.4000000000000       12.484004608208    
  6.8000000000000       5.0285275015814    
  7.2000000000000       4.9911478533802    
  7.6000000000000       2.5142637507907    
  8.0000000000000       2.5142637507907    
  8.4000000000000       12.553013692083    
  8.8000000000000       2.5142637507907    
  9.2000000000000       17.516760065200    
  9.6000000000000       15.022503014477    
  10.000000000000       15.095802857958    
  10.400000000000       15.134303719475    
  10.800000000000       22.632337369146    
  11.200000000000       9.9924484606808    
  11.600000000000       24.940342698785    
  12.000000000000       25.069484885120    
  12.400000000000       37.462903732824    
  12.800000000000       34.990652888099    
  13.200000000000       12.451798194681    
  13.600000000000       22.674762856690    
  14.000000000000       12.484562752732    
  14.400000000000       15.084003857880    
  14.800000000000       20.048559471590    
  15.200000000000       20.016030225319    
  15.600000000000       5.0013297487916    
  16.000000000000       20.005836097643    
  16.400000000000       12.610524558011    
  16.800000000000       17.498538399387    
  17.200000000000       17.499057245831    
  17.600000000000       7.4721088931789    
  18.000000000000       5.0051077940480    
  18.400000000000       12.463343498106    
  18.800000000000       15.077667214027    
  19.200000000000       12.509800987247    
  19.600000000000       17.456524967319    
  20.000000000000       4.9930552174371    
ZONE T= "Xw:     39.9300      Yw:     28.4100      Rw:    0.100000      Zwbot:     13.5000      Zwtop:     14.0000       Specie:  1 "
 0.40000000000000       0.0000000000000    
 0.80000000000000       0.0000000000000    
  1.2000000000000       0.0000000000000    
  1.6000000000000       0.0000000000000    
  2.0000000000000       0.0000000000000    
  2.4000000000000       0.0000000000000    
  2.8000000000000       0.0000000000000    
  3.2000000000000       0.0000000000000    
  3.6000000000000       0.0000000000000    
  4.0000000000000       0.0000000000000    
  4.4000000000000       0.0000000000000    
  4.8000000000000       0.0000000000000    
  5.2000000000000       0.0000000000000    
  5.6000000000000       0.0000000000000    
  6.0000000000000       0.0000000000000    
  6.4000000000000       0.0000000000000    
  6.8000000000000       0.0000000000000    
  7.2000000000000       0.0000000000000    
  7.6000000000000       0.0000000000000    
  8.0000000000000       0.0000000000000    
  8.4000000000000       0.0000000000000    
  8.8000000000000       0.0000000000000    
  9.2000000000000       0.0000000000000    
  9.6000000000000       0.0000000000000    
  10.000000000000       0.0000000000000    
  10.400000000000       0.0000000000000    
  10.800000000000       0.0000000000000    
  11.200000000000       2.5022740380555    
  11.600000000000       0.0000000000000    
  12.000000000000       5.0045480761109    
  12.400000000000       2.5022740380555    
  12.800000000000       0.0000000000000    
  13.200000000000       0.0000000000000    
  13.600000000000       7.5166806781912    
  14.000000000000       2.5121326020802    
  14.400000000000       5.0045480761109    
  14.800000000000       0.0000000000000    
  15.200000000000       0.0000000000000    
  15.600000000000       2.4835878093273    
  16.000000000000       7.4793082207348    
  16.400000000000       5.0242652041605    
  16.800000000000       0.0000000000000    
  17.200000000000       5.0466966798716    
  17.600000000000       10.042417091279    
  18.000000000000       15.106442826048    
  18.400000000000       10.082177621888    
  18.800000000000       2.5233483399358    
  19.200000000000       0.0000000000000    
  19.600000000000       0.0000000000000    
  20.000000000000       4.9957279579722    
ZONE T= "Xw:     39.8300      Yw:     28.4100      Rw:    0.100000      Zwbot:     10.6000      Zwtop:     11.2000       Specie:  1 "
 0.40000000000000       0.0000000000000    
 0.80000000000000       0.0000000000000    
  1.2000000000000       0.0000000000000    
  1.6000000000000       7.5039243744584    
  2.0000000000000       10.008960239201    
  2.4000000000000       12.488322542123    
  2.8000000000000       14.964950478092    
  3.2000000000000       7.5250160016660    
  3.6000000000000       10.047415753693    
  4.0000000000000       17.585794639813    
  4.4000000000000       7.5139333659030    
  4.8000000000000       22.536600414012    
  5.2000000000000       24.990454769718    
  5.6000000000000       14.977436526363    
  6.0000000000000       15.131146964966    
  6.4000000000000       19.981706480885    
  6.8000000000000       30.048859641974    
  7.2000000000000       29.982883306887    
  7.6000000000000       20.021020148961    
  8.0000000000000       17.430600582877    
  8.4000000000000       27.433755144822    
  8.8000000000000       35.120954251997    
  9.2000000000000       34.929622574908    
  9.6000000000000       9.9724403414112    
  10.000000000000       32.464339051939    
  10.400000000000       44.936934738509    
  10.800000000000       39.883614685433    
  11.200000000000       34.977058699172    
  11.600000000000       34.812636499059    
  12.000000000000       47.541402013881    
  12.400000000000       37.491852430241    
  12.800000000000       42.588155215991    
  13.200000000000       32.421848898551    
  13.600000000000       19.933319898546    
  14.000000000000       7.4939798559044    
  14.400000000000       12.548254893196    
  14.800000000000       17.503429935319    
  15.200000000000       12.538872312013    
  15.600000000000       10.038303750057    
  16.000000000000       15.153817899802    
  16.400000000000       27.822287922365    
  16.800000000000       17.651989879360    
  17.200000000000       20.245019853364    
  17.600000000000       17.370995490882    
  18.000000000000       9.9861895111771    
  18.400000000000       4.9922730559673    
  18.800000000000       12.644733507879    
  19.200000000000       10.085162594288    
  19.600000000000       4.9922730559673    
  20.000000000000       0.0000000000000    
ZONE T= "Xw:     39.8300      Yw:     28.4100      Rw:    0.100000      Zwbot:     7.60000      Zwtop:     8.30000       Specie:  1 "
 0.40000000000000       0.0000000000000    
 0.80000000000000       0.0000000000000    
  1.2000000000000       0.0000000000000    
  1.6000000000000       2.5305995116968    
  2.0000000000000       2.5305995116968    
  2.4000000000000       2.5305995116968    
  2.8000000000000       0.0000000000000    
  3.2000000000000       2.5205872477141    
  3.6000000000000       9.9677929346211    
  4.0000000000000       20.103848328517    
  4.4000000000000       27.483487341570    
  4.8000000000000       7.5328220655486    
  5.2000000000000       15.023066656169    
  5.6000000000000       22.476872762376    
  6.0000000000000       12.517026360944    
  6.4000000000000       22.578894270683    
  6.8000000000000       17.550954750771    
  7.2000000000000       29.804604606881    
  7.6000000000000       37.373588695014    
  8.0000000000000       15.049722481557    
  8.4000000000000       35.061379208251    
  8.8000000000000       35.077728730106    
  9.2000000000000       17.510392920937    
  9.6000000000000       24.999339852821    
  10.000000000000       35.179403404461    
  10.400000000000       47.769200179367    
  10.800000000000       45.058147602681    
  11.200000000000       42.596994755164    
  11.600000000000       27.612463464891    
  12.000000000000       47.781228060266    
  12.400000000000       57.703765279791    
  12.800000000000       55.060939706170    
  13.200000000000       57.344944329070    
  13.600000000000       50.002410696846    
  14.000000000000       17.672702843218    
  14.400000000000       37.617779699042    
  14.800000000000       19.987780452667    
  15.200000000000       44.952586431575    
  15.600000000000       22.555672017943    
  16.000000000000       45.297810164451    
  16.400000000000       22.540261819994    
  16.800000000000       35.234459290986    
  17.200000000000       12.524364519385    
  17.600000000000       22.593884580627    
  18.000000000000       10.071257178610    
  18.400000000000       17.519656812177    
  18.800000000000       15.151043970385    
  19.200000000000       20.115355573307    
  19.600000000000       34.986849059559    
  20.000000000000       5.0514430184838    
ZONE T= "Xw:     39.8300      Yw:     28.5100      Rw:    0.100000      Zwbot:     4.50000      Zwtop:     5.00000       Specie:  1 "
 0.40000000000000       22.242032383765    
 0.80000000000000       0.0000000000000    
  1.2000000000000       5.0153597286725    
  1.6000000000000       2.4713369315295    
  2.0000000000000       20.125341218404    
  2.4000000000000       20.116241135841    
  2.8000000000000       17.632475815734    
  3.2000000000000       27.341367665077    
  3.6000000000000       37.507625480760    
  4.0000000000000       64.902143993160    
  4.4000000000000       42.512058608324    
  4.8000000000000       52.433352467748    
  5.2000000000000       47.474896309929    
  5.6000000000000       47.375165812587    
  6.0000000000000       39.864012170653    
  6.4000000000000       29.873944953244    
  6.8000000000000       54.933201414883    
  7.2000000000000       40.164377134097    
  7.6000000000000       113.20837527305    
  8.0000000000000       60.123010934598    
  8.4000000000000       44.990382957036    
  8.8000000000000       32.506814667025    
  9.2000000000000       44.882331300254    
  9.6000000000000       27.357177083619    
  10.000000000000       30.065044417815    
  10.400000000000       42.829348741075    
  10.800000000000       47.614445166577    
  11.200000000000       20.087480718855    
  11.600000000000       14.952435545693    
  12.000000000000       14.979907358259    
  12.400000000000       14.945967280761    
  12.800000000000       0.0000000000000    
  13.200000000000       4.9754594765118    
  13.600000000000       12.465824510912    
  14.000000000000       12.439461815509    
  14.400000000000       5.0225709758255    
  14.800000000000       5.0449398767053    
  15.200000000000       2.5080246292624    
  15.600000000000       4.9831369797787    
  16.000000000000       0.0000000000000    
  16.400000000000       0.0000000000000    
  16.800000000000       0.0000000000000    
  17.200000000000       0.0000000000000    
  17.600000000000       0.0000000000000    
  18.000000000000       5.0535963385903    
  18.400000000000       0.0000000000000    
  18.800000000000       0.0000000000000    
  19.200000000000       0.0000000000000    
  19.600000000000       2.5267981692952    
  20.000000000000       0.0000000000000    
ZONE T= "Xw:     39.5300      Yw:     34.0100      Rw:    0.100000      Zwbot:     16.7000      Zwtop:     17.3000       Specie:  1 "
 0.40000000000000       24.787856050891    
 0.80000000000000       2.4758283179814    
  1.2000000000000       2.4758283179814    
  1.6000000000000       0.0000000000000    
  2.0000000000000       2.4954325634309    
  2.4000000000000       4.9915131420121    
  2.8000000000000       9.9178759450081    
  3.2000000000000       7.5079532937511    
  3.6000000000000       2.4791141925455    
  4.0000000000000       14.936499858786    
  4.4000000000000       10.002993922673    
  4.8000000000000       2.5019456257279    
  5.2000000000000       5.0038912514558    
  5.6000000000000       5.0038912514558    
  6.0000000000000       9.9847459515020    
  6.4000000000000       22.465208987248    
  6.8000000000000       2.4844864945687    
  7.2000000000000       27.558989887517    
  7.6000000000000       32.500218883120    
  8.0000000000000       27.513064939989    
  8.4000000000000       27.419418795623    
  8.8000000000000       10.023854943987    
  9.2000000000000       9.9702067041689    
  9.6000000000000       19.970041664410    
  10.000000000000       9.9943517069380    
  10.400000000000       19.952053689547    
  10.800000000000       47.364429703207    
  11.200000000000       14.954239263735    
  11.600000000000       9.9276283894938    
  12.000000000000       29.960118346563    
  12.400000000000       15.021018976083    
  12.800000000000       12.582573081112    
  13.200000000000       5.0033704426367    
  13.600000000000       9.9931010298332    
  14.000000000000       5.0103503744415    
  14.400000000000       9.9609923672823    
  14.800000000000       10.033711971868    
  15.200000000000       5.0210401779916    
  15.600000000000       7.4544193632026    
  16.000000000000       14.952309364288    
  16.400000000000       12.489324824279    
  16.800000000000       4.9502457202986    
  17.200000000000       7.4190459336121    
  17.600000000000       14.885953065302    
  18.000000000000       7.4778941441688    
  18.400000000000       0.0000000000000    
  18.800000000000       2.4655719214831    
  19.200000000000       5.0104592406248    
  19.600000000000       7.4271607984655    
  20.000000000000       4.9603940649707    
ZONE T= "Xw:     39.5300      Yw:     34.1100      Rw:    0.100000      Zwbot:     13.5000      Zwtop:     14.0000       Specie:  1 "
 0.40000000000000       0.0000000000000    
 0.80000000000000       0.0000000000000    
  1.2000000000000       0.0000000000000    
  1.6000000000000       0.0000000000000    
  2.0000000000000       0.0000000000000    
  2.4000000000000       0.0000000000000    
  2.8000000000000       0.0000000000000    
  3.2000000000000       0.0000000000000    
  3.6000000000000       0.0000000000000    
  4.0000000000000       2.4751909000459    
  4.4000000000000       2.4751909000459    
  4.8000000000000       0.0000000000000    
  5.2000000000000       2.4751909000459    
  5.6000000000000       0.0000000000000    
  6.0000000000000       0.0000000000000    
  6.4000000000000       4.9616838875776    
  6.8000000000000       2.4916076363521    
  7.2000000000000       9.9664305454083    
  7.6000000000000       4.9832152727042    
  8.0000000000000       7.4522981945920    
  8.4000000000000       9.9349142058235    
  8.8000000000000       9.9967078658968    
  9.2000000000000       7.5099586629852    
  9.6000000000000       14.958565876081    
  10.000000000000       17.338857680091    
  10.400000000000       19.972274804994    
  10.800000000000       17.459560137947    
  11.200000000000       12.417937656542    
  11.600000000000       29.881506982112    
  12.000000000000       14.924061017490    
  12.400000000000       19.894378369079    
  12.800000000000       20.000729942892    
  13.200000000000       17.391748116319    
  13.600000000000       29.932645551659    
  14.000000000000       37.465588789833    
  14.400000000000       44.994626992806    
  14.800000000000       27.369376839761    
  15.200000000000       47.497660233050    
  15.600000000000       15.037477340875    
  16.000000000000       7.5169237146047    
  16.400000000000       9.8989467388101    
  16.800000000000       14.955634173802    
  17.200000000000       42.274539245204    
  17.600000000000       44.855010276578    
  18.000000000000       25.024234536195    
  18.400000000000       25.043514613134    
  18.800000000000       30.021754550915    
  19.200000000000       34.883390901788    
  19.600000000000       32.280175267029    
  20.000000000000       14.924576743628    
ZONE T= "Xw:     39.4300      Yw:     34.0100      Rw:    0.100000      Zwbot:     10.5000      Zwtop:     11.1000       Specie:  1 "
 0.40000000000000       19.914341108531    
 0.80000000000000       0.0000000000000    
  1.2000000000000       7.4876732074706    
  1.6000000000000       7.5331614441870    
  2.0000000000000       14.980454638279    
  2.4000000000000       22.581587896018    
  2.8000000000000       32.660117078353    
  3.2000000000000       30.135858384442    
  3.6000000000000       47.613973281224    
  4.0000000000000       32.491051056041    
  4.4000000000000       34.951216949130    
  4.8000000000000       25.226650339467    
  5.2000000000000       17.621150401498    
  5.6000000000000       14.958655768384    
  6.0000000000000       30.111149424895    
  6.4000000000000       19.967407871580    
  6.8000000000000       24.912408761233    
  7.2000000000000       42.530482116653    
  7.6000000000000       29.934651020955    
  8.0000000000000       30.041087088243    
  8.4000000000000       35.014082597073    
  8.8000000000000       19.943338973440    
  9.2000000000000       35.047138850293    
  9.6000000000000       22.536771535781    
  10.000000000000       19.978105228083    