 TITLE="TECPLOT input file: Breakthrough Curves" 
 VARIABLES="Time" "Concentrations" 
ZONE T= "Xw:     39.9300      Yw:     22.4100      Rw:    0.100000      Zwbot:     16.5000      Zwtop:     17.0000       Specie:  1 "
  0.0000000000000       0.0000000000000    
  0.0000000000000       0.0000000000000    
  0.0000000000000       0.0000000000000    
  0.0000000000000       0.0000000000000    
  0.0000000000000       0.0000000000000    
  0.0000000000000       0.0000000000000    
  0.0000000000000       0.0000000000000    
  0.0000000000000       0.0000000000000    
  0.0000000000000       0.0000000000000    
  0.0000000000000       0.0000000000000    
  0.0000000000000       0.0000000000000    
  0.0000000000000       0.0000000000000    
  0.0000000000000       0.0000000000000    
  0.0000000000000       0.0000000000000    
  0.0000000000000       0.0000000000000    
  0.0000000000000       0.0000000000000    
  0.0000000000000       0.0000000000000    
  0.0000000000000       0.0000000000000    
  0.0000000000000       0.0000000000000    
  0.0000000000000       0.0000000000000    
  0.0000000000000       0.0000000000000    
  0.0000000000000       0.0000000000000    
  0.0000000000000       0.0000000000000    
  0.0000000000000       0.0000000000000    
  0.0000000000000       0.0000000000000    
  0.0000000000000       0.0000000000000    
  0.0000000000000       0.0000000000000    
  0.0000000000000       0.0000000000000    
  0.0000000000000       0.0000000000000    
  0.0000000000000       0.0000000000000    
  0.0000000000000       0.0000000000000    
  0.0000000000000       0.0000000000000    
  0.0000000000000       0.0000000000000    
  0.0000000000000       0.0000000000000    
  0.0000000000000       0.0000000000000    
  0.0000000000000       0.0000000000000    
  0.0000000000000       0.0000000000000    
  0.0000000000000       0.0000000000000    
  0.0000000000000       0.0000000000000    
  0.0000000000000       0.0000000000000    
  0.0000000000000       0.0000000000000    
  0.0000000000000       0.0000000000000    
  0.0000000000000       0.0000000000000    
  0.0000000000000       0.0000000000000    
  0.0000000000000       0.0000000000000    
  0.0000000000000       0.0000000000000    
  0.0000000000000       0.0000000000000    
  0.0000000000000       0.0000000000000    
  0.0000000000000       0.0000000000000    
  0.0000000000000       0.0000000000000    
ZONE T= "Xw:     39.9300      Yw:     22.4100      Rw:    0.100000      Zwbot:     13.5000      Zwtop:     14.0000       Specie:  1 "
 0.40000000000000       0.0000000000000    
 0.80000000000000       0.0000000000000    
  1.2000000000000       0.0000000000000    
  1.6000000000000       0.0000000000000    
  2.0000000000000       0.0000000000000    
  2.4000000000000       0.0000000000000    
  2.8000000000000       0.0000000000000    
  3.2000000000000       0.0000000000000    
  3.6000000000000       0.0000000000000    
  4.0000000000000       0.0000000000000    
  4.4000000000000       0.0000000000000    
  4.8000000000000       0.0000000000000    
  5.2000000000000       0.0000000000000    
  5.6000000000000       0.0000000000000    
  6.0000000000000       0.0000000000000    
  6.4000000000000       0.0000000000000    
  6.8000000000000       0.0000000000000    
  7.2000000000000       0.0000000000000    
  7.6000000000000       0.0000000000000    
  8.0000000000000       0.0000000000000    
  8.4000000000000       0.0000000000000    
  8.8000000000000       0.0000000000000    
  9.2000000000000       0.0000000000000    
  9.6000000000000       0.0000000000000    
  10.000000000000       0.0000000000000    
  10.400000000000       0.0000000000000    
  10.800000000000       0.0000000000000    
  11.200000000000       0.0000000000000    
  11.600000000000       0.0000000000000    
  12.000000000000       0.0000000000000    
  12.400000000000       2.4830779127576    
  12.800000000000       0.0000000000000    
  13.200000000000       0.0000000000000    
  13.600000000000       4.9651182090296    
  14.000000000000       0.0000000000000    
  14.400000000000       5.0453091619161    
  14.800000000000       10.059477000770    
  15.200000000000       5.0453091619161    
  15.600000000000       4.9581456061759    
  16.000000000000       5.0081544255560    
  16.400000000000       14.950042891252    
  16.800000000000       7.4928126913960    
  17.200000000000       0.0000000000000    
  17.600000000000       9.9629019589008    
  18.000000000000       27.489695057677    
  18.400000000000       14.964935079442    
  18.800000000000       19.914472669630    
  19.200000000000       17.509613073323    
  19.600000000000       20.050310515512    
  20.000000000000       2.4972655385406    
ZONE T= "Xw:     39.9300      Yw:     22.3100      Rw:    0.100000      Zwbot:     10.5000      Zwtop:     11.0000       Specie:  1 "
 0.40000000000000       0.0000000000000    
 0.80000000000000       0.0000000000000    
  1.2000000000000       0.0000000000000    
  1.6000000000000       0.0000000000000    
  2.0000000000000       0.0000000000000    
  2.4000000000000       0.0000000000000    
  2.8000000000000       0.0000000000000    
  3.2000000000000       5.0309568151381    
  3.6000000000000       0.0000000000000    
  4.0000000000000       0.0000000000000    
  4.4000000000000       0.0000000000000    
  4.8000000000000       0.0000000000000    
  5.2000000000000       4.9781863682323    
  5.6000000000000       9.9477750830253    
  6.0000000000000       4.9748845806110    
  6.4000000000000       9.9281611850883    
  6.8000000000000       14.913459859936    
  7.2000000000000       4.9640805925441    
  7.6000000000000       34.943730728874    
  8.0000000000000       22.550080884336    
  8.4000000000000       12.517761668632    
  8.8000000000000       17.543533565891    
  9.2000000000000       17.603761693311    
  9.6000000000000       12.550241881053    
  10.000000000000       34.947856638750    
  10.400000000000       40.004994231027    
  10.800000000000       22.452938048385    
  11.200000000000       32.455365631637    
  11.600000000000       47.586499842049    
  12.000000000000       67.585385269455    
  12.400000000000       45.033738964828    
  12.800000000000       42.589929414213    
  13.200000000000       37.677291813559    
  13.600000000000       14.980383924335    
  14.000000000000       7.4547739343874    
  14.400000000000       14.924080508947    
  14.800000000000       24.977988344908    
  15.200000000000       12.485936467271    
  15.600000000000       2.4769306174944    
  16.000000000000       17.479411032083    
  16.400000000000       7.4739849542372    
  16.800000000000       4.9565624214349    
  17.200000000000       4.9583234254718    
  17.600000000000       17.476920683399    
  18.000000000000       10.002661095789    
  18.400000000000       5.0254852768230    
  18.800000000000       0.0000000000000    
  19.200000000000       0.0000000000000    
  19.600000000000       0.0000000000000    
  20.000000000000       0.0000000000000    
ZONE T= "Xw:     40.0300      Yw:     22.4100      Rw:    0.100000      Zwbot:     7.60000      Zwtop:     8.10000       Specie:  1 "
 0.40000000000000       0.0000000000000    
 0.80000000000000       0.0000000000000    
  1.2000000000000       0.0000000000000    
  1.6000000000000       0.0000000000000    
  2.0000000000000       0.0000000000000    
  2.4000000000000       0.0000000000000    
  2.8000000000000       0.0000000000000    
  3.2000000000000       0.0000000000000    
  3.6000000000000       0.0000000000000    
  4.0000000000000       2.4854047439346    
  4.4000000000000       4.9708094878692    
  4.8000000000000       2.4854047439346    
  5.2000000000000       7.4723107696779    
  5.6000000000000       12.505079800841    
  6.0000000000000       12.493925148889    
  6.4000000000000       27.524547999078    
  6.8000000000000       35.006822729357    
  7.2000000000000       20.088587840842    
  7.6000000000000       15.006387226903    
  8.0000000000000       32.425628240860    
  8.4000000000000       27.384121196940    
  8.8000000000000       32.388249401513    
  9.2000000000000       17.427982930849    
  9.6000000000000       32.327938696070    
  10.000000000000       27.497947626003    
  10.400000000000       40.089217542425    
  10.800000000000       44.968340986274    
  11.200000000000       64.989849610837    
  11.600000000000       39.966826431319    
  12.000000000000       52.655471263532    
  12.400000000000       52.689439537189    
  12.800000000000       32.568582019825    
  13.200000000000       44.910846353544    
  13.600000000000       32.419700746736    
  14.000000000000       45.104568313909    
  14.400000000000       47.471112712397    
  14.800000000000       35.067843251255    
  15.200000000000       25.000128850046    
  15.600000000000       17.539711831601    
  16.000000000000       5.0063558341756    
  16.400000000000       20.023540044456    
  16.800000000000       20.085183311146    
  17.200000000000       40.071116131133    
  17.600000000000       20.077012067801    
  18.000000000000       17.609707526620    
  18.400000000000       20.003712837259    
  18.800000000000       0.0000000000000    
  19.200000000000       2.4747703459438    
  19.600000000000       7.5062436359723    
  20.000000000000       2.4747703459438    
ZONE T= "Xw:     39.9300      Yw:     22.4100      Rw:    0.100000      Zwbot:     4.50000      Zwtop:     5.00000       Specie:  1 "
 0.40000000000000       0.0000000000000    
 0.80000000000000       0.0000000000000    
  1.2000000000000       0.0000000000000    
  1.6000000000000       0.0000000000000    
  2.0000000000000       0.0000000000000    
  2.4000000000000       0.0000000000000    
  2.8000000000000       0.0000000000000    
  3.2000000000000       0.0000000000000    
  3.6000000000000       0.0000000000000    
  4.0000000000000       7.4593454250991    
  4.4000000000000       12.511790686193    
  4.8000000000000       2.4864484750330    
  5.2000000000000       10.048984064385    
  5.6000000000000       12.564490079115    
  6.0000000000000       22.502061637168    
  6.4000000000000       10.054131920961    
  6.8000000000000       45.073699701442    
  7.2000000000000       22.542177284788    
  7.6000000000000       27.587369419978    
  8.0000000000000       35.074091280591    
  8.4000000000000       32.419818274949    
  8.8000000000000       52.382629947275    
  9.2000000000000       37.450542819758    
  9.6000000000000       54.872071212939    
  10.000000000000       75.016984379823    
  10.400000000000       37.449427778248    
  10.800000000000       52.556944984067    
  11.200000000000       37.599108017383    
  11.600000000000       35.035123621277    
  12.000000000000       55.073345831862    
  12.400000000000       45.137289234078    
  12.800000000000       45.192963165308    
  13.200000000000       30.154320877734    
  13.600000000000       32.541739412309    
  14.000000000000       14.981042792102    
  14.400000000000       7.5172099730885    
  14.800000000000       15.052140123434    
  15.200000000000       12.544619049018    
  15.600000000000       7.4986073325959    
  16.000000000000       12.541479538317    
  16.400000000000       12.459743106206    
  16.800000000000       9.9865560218441    
  17.200000000000       15.049948942808    
  17.600000000000       7.5317138797006    
  18.000000000000       10.020290503983    
  18.400000000000       20.088580647141    
  18.800000000000       15.035276321904    
  19.200000000000       12.514287591173    
  19.600000000000       7.5131652627816    
  20.000000000000       5.0048984912398    
ZONE T= "Xw:     39.8300      Yw:     28.4100      Rw:    0.100000      Zwbot:     16.5000      Zwtop:     17.0000       Specie:  1 "
 0.40000000000000       0.0000000000000    
 0.80000000000000       0.0000000000000    
  1.2000000000000       0.0000000000000    
  1.6000000000000       0.0000000000000    
  2.0000000000000       0.0000000000000    
  2.4000000000000       0.0000000000000    
  2.8000000000000       0.0000000000000    
  3.2000000000000       0.0000000000000    
  3.6000000000000       0.0000000000000    
  4.0000000000000       0.0000000000000    
  4.4000000000000       0.0000000000000    
  4.8000000000000       0.0000000000000    
  5.2000000000000       0.0000000000000    
  5.6000000000000       0.0000000000000    
  6.0000000000000       7.4860398595771    
  6.4000000000000       0.0000000000000    
  6.8000000000000       4.9906932397181    
  7.2000000000000       9.9813864794362    
  7.6000000000000       5.0152760105493    
  8.0000000000000       27.481326790701    
  8.4000000000000       10.005969250267    
  8.8000000000000       7.4347326661288    
  9.2000000000000       7.5861794239233    
  9.6000000000000       7.4718735917608    
  10.000000000000       9.9681046428911    
  10.400000000000       17.452019568763    
  10.800000000000       5.0168008426765    
  11.200000000000       2.5247274448729    
  11.600000000000       12.555669262860    
  12.000000000000       19.905442213852    
  12.400000000000       22.485674940769    
  12.800000000000       7.4997928136120    
  13.200000000000       4.9923135092058    
  13.600000000000       7.4867605921870    
  14.000000000000       20.039671242297    
  14.400000000000       12.489070958296    
  14.800000000000       2.5254033372790    
  15.200000000000       17.441390372255    
  15.600000000000       12.577423609719    
  16.000000000000       22.367186124985    
  16.400000000000       17.469164860342    
  16.800000000000       9.9138715103290    
  17.200000000000       2.4849849169702    
  17.600000000000       4.9526262036286    
  18.000000000000       4.9699698339404    
  18.400000000000       2.4987484992466    
  18.800000000000       0.0000000000000    
  19.200000000000       0.0000000000000    
  19.600000000000       14.979624476291    
  20.000000000000       0.0000000000000    
ZONE T= "Xw:     39.9300      Yw:     28.4100      Rw:    0.100000      Zwbot:     13.5000      Zwtop:     14.0000       Specie:  1 "
 0.40000000000000       0.0000000000000    
 0.80000000000000       0.0000000000000    
  1.2000000000000       0.0000000000000    
  1.6000000000000       0.0000000000000    
  2.0000000000000       0.0000000000000    
  2.4000000000000       0.0000000000000    
  2.8000000000000       0.0000000000000    
  3.2000000000000       0.0000000000000    
  3.6000000000000       0.0000000000000    
  4.0000000000000       0.0000000000000    
  4.4000000000000       0.0000000000000    
  4.8000000000000       0.0000000000000    
  5.2000000000000       0.0000000000000    
  5.6000000000000       0.0000000000000    
  6.0000000000000       0.0000000000000    
  6.4000000000000       0.0000000000000    
  6.8000000000000       0.0000000000000    
  7.2000000000000       0.0000000000000    
  7.6000000000000       0.0000000000000    
  8.0000000000000       0.0000000000000    
  8.4000000000000       0.0000000000000    
  8.8000000000000       0.0000000000000    
  9.2000000000000       0.0000000000000    
  9.6000000000000       0.0000000000000    
  10.000000000000       2.5042767643561    
  10.400000000000       2.5042767643561    
  10.800000000000       5.0504058651482    
  11.200000000000       2.5252029325741    
  11.600000000000       5.0504058651482    
  12.000000000000       0.0000000000000    
  12.400000000000       5.0504058651482    
  12.800000000000       5.0085535287123    
  13.200000000000       2.5042767643561    
  13.600000000000       5.0504058651482    
  14.000000000000       0.0000000000000    
  14.400000000000       0.0000000000000    
  14.800000000000       2.4633963838011    
  15.200000000000       0.0000000000000    
  15.600000000000       0.0000000000000    
  16.000000000000       0.0000000000000    
  16.400000000000       2.5252029325741    
  16.800000000000       0.0000000000000    
  17.200000000000       0.0000000000000    
  17.600000000000       7.5551820858076    
  18.000000000000       5.0332479089393    
  18.400000000000       5.0153432279725    
  18.800000000000       2.4969491993700    
  19.200000000000       2.4732011829482    
  19.600000000000       14.944155528046    
  20.000000000000       4.9825920429570    
ZONE T= "Xw:     39.8300      Yw:     28.4100      Rw:    0.100000      Zwbot:     10.6000      Zwtop:     11.2000       Specie:  1 "
 0.40000000000000       0.0000000000000    
 0.80000000000000       0.0000000000000    
  1.2000000000000       2.4937742397211    
  1.6000000000000       5.0138364268168    
  2.0000000000000       17.565746209468    
  2.4000000000000       17.506264883495    
  2.8000000000000       0.0000000000000    
  3.2000000000000       5.0186345399815    
  3.6000000000000       5.0235132615140    
  4.0000000000000       17.582332713977    
  4.4000000000000       22.572571331677    
  4.8000000000000       24.964080551543    
  5.2000000000000       19.996798884114    
  5.6000000000000       32.441278306200    
  6.0000000000000       39.949623761746    
  6.4000000000000       37.451473241411    
  6.8000000000000       60.111894213421    
  7.2000000000000       27.588496177176    
  7.6000000000000       27.448207567754    
  8.0000000000000       24.850988362697    
  8.4000000000000       49.688933694096    
  8.8000000000000       32.478076016021    
  9.2000000000000       34.784864549741    
  9.6000000000000       39.893883870414    
  10.000000000000       60.105433377571    
  10.400000000000       40.059355983471    
  10.800000000000       45.193225388875    
  11.200000000000       72.638545585031    
  11.600000000000       37.579661572028    
  12.000000000000       24.989406833886    
  12.400000000000       42.522659489681    
  12.800000000000       12.599807905348    
  13.200000000000       12.521316561061    
  13.600000000000       7.5752212733519    
  14.000000000000       5.0105164261719    
  14.400000000000       5.0359791884916    
  14.800000000000       12.636078235777    
  15.200000000000       7.5763057518927    
  15.600000000000       4.9482646621402    
  16.000000000000       20.049428373248    
  16.400000000000       12.537270742037    
  16.800000000000       15.021873679414    
  17.200000000000       17.654555064222    
  17.600000000000       10.060118135589    
  18.000000000000       0.0000000000000    
  18.400000000000       0.0000000000000    
  18.800000000000       0.0000000000000    
  19.200000000000       5.0501237364075    
  19.600000000000       0.0000000000000    
  20.000000000000       2.4664572510446    
ZONE T= "Xw:     39.8300      Yw:     28.4100      Rw:    0.100000      Zwbot:     7.60000      Zwtop:     8.30000       Specie:  1 "
 0.40000000000000       0.0000000000000    
 0.80000000000000       0.0000000000000    
  1.2000000000000       7.4656863735571    
  1.6000000000000       17.566655207288    
  2.0000000000000       5.0201710222532    
  2.4000000000000       0.0000000000000    
  2.8000000000000       0.0000000000000    
  3.2000000000000       2.4995413388045    
  3.6000000000000       2.4995413388045    
  4.0000000000000       4.9990826776091    
  4.4000000000000       5.0271122598869    
  4.8000000000000       10.037561084085    
  5.2000000000000       7.5361279251942    
  5.6000000000000       22.520718570280    
  6.0000000000000       22.630442410197    
  6.4000000000000       7.5160078607310    
  6.8000000000000       12.624541439710    
  7.2000000000000       25.027263034266    
  7.6000000000000       37.504966326680    
  8.0000000000000       30.032199333627    
  8.4000000000000       27.544944083465    
  8.8000000000000       27.611362470539    
  9.2000000000000       45.105051615290    
  9.6000000000000       37.521442027584    
  10.000000000000       47.612599088861    
  10.400000000000       50.124030011883    
  10.800000000000       42.607110646536    
  11.200000000000       47.601320069443    
  11.600000000000       47.619619670816    
  12.000000000000       35.080775254468    
  12.400000000000       40.054391678954    
  12.800000000000       60.359912472346    
  13.200000000000       37.583218027877    
  13.600000000000       25.076800574978    
  14.000000000000       17.464079907937    
  14.400000000000       24.953281304226    
  14.800000000000       42.470224213590    
  15.200000000000       17.580976276468    
  15.600000000000       39.940081238591    
  16.000000000000       32.470813344151    
  16.400000000000       52.473618155209    
  16.800000000000       27.419652185061    
  17.200000000000       59.868851569336    
  17.600000000000       40.010011062145    
  18.000000000000       22.540979473220    
  18.400000000000       32.484947576411    
  18.800000000000       34.874611092232    
  19.200000000000       15.000179288082    
  19.600000000000       27.431064363095    
  20.000000000000       7.4969725793580    
ZONE T= "Xw:     39.8300      Yw:     28.5100      Rw:    0.100000      Zwbot:     4.50000      Zwtop:     5.00000       Specie:  1 "
 0.40000000000000       0.0000000000000    
 0.80000000000000       2.4962468572898    
  1.2000000000000       2.5209913569612    
  1.6000000000000       12.544843602285    
  2.0000000000000       19.984984279187    
  2.4000000000000       37.658058404763    
  2.8000000000000       40.106665120021    
  3.2000000000000       45.070318393103    
  3.6000000000000       35.148545039839    
  4.0000000000000       34.926326300479    
  4.4000000000000       22.594360432187    
  4.8000000000000       10.056664851598    
  5.2000000000000       17.595989701755    
  5.6000000000000       22.481823228049    
  6.0000000000000       47.551990569495    
  6.4000000000000       54.807853829698    
  6.8000000000000       74.734087169710    
  7.2000000000000       35.078135869506    
  7.6000000000000       62.421012837116    
  8.0000000000000       64.813325852577    
  8.4000000000000       49.919470071780    
  8.8000000000000       25.107602852295    
  9.2000000000000       27.530373023758    
  9.6000000000000       15.050704260399    
  10.000000000000       32.524397126823    
  10.400000000000       12.447677012215    
  10.800000000000       12.585627186491    
  11.200000000000       12.550851719466    
  11.600000000000       9.9872691271227    
  12.000000000000       17.467651673564    
  12.400000000000       12.433226542023    
  12.800000000000       17.389914312936    
  13.200000000000       2.5198435656840    
  13.600000000000       4.9950373088657    
  14.000000000000       0.0000000000000    
  14.400000000000       0.0000000000000    
  14.800000000000       0.0000000000000    
  15.200000000000       0.0000000000000    
  15.600000000000       0.0000000000000    
  16.000000000000       0.0000000000000    
  16.400000000000       5.0125853799502    
  16.800000000000       0.0000000000000    
  17.200000000000       7.5464352227071    
  17.600000000000       0.0000000000000    
  18.000000000000       2.5154784075690    
  18.400000000000       0.0000000000000    
  18.800000000000       5.0309568151381    
  19.200000000000       0.0000000000000    
  19.600000000000       0.0000000000000    
  20.000000000000       0.0000000000000    
ZONE T= "Xw:     39.5300      Yw:     34.0100      Rw:    0.100000      Zwbot:     16.7000      Zwtop:     17.3000       Specie:  1 "
 0.40000000000000       0.0000000000000    
 0.80000000000000       2.5081771896870    
  1.2000000000000       5.0690998794431    
  1.6000000000000       0.0000000000000    
  2.0000000000000       2.5345499397216    
  2.4000000000000       7.4485908983555    
  2.8000000000000       7.5255907621937    
  3.2000000000000       7.4757851326841    
  3.6000000000000       7.4748065288796    
  4.0000000000000       22.599721251599    
  4.4000000000000       2.4828636327852    
  4.8000000000000       22.572005961387    
  5.2000000000000       20.198499714240    
  5.6000000000000       17.618228056818    
  6.0000000000000       9.9402909603623    
  6.4000000000000       22.440787982107    
  6.8000000000000       22.328177341899    
  7.2000000000000       12.388609898824    
  7.6000000000000       14.955926901252    
  8.0000000000000       32.308154795184    
  8.4000000000000       19.967506016962    
  8.8000000000000       19.922080108137    
  9.2000000000000       7.4421349959590    
  9.6000000000000       29.924852113587    
  10.000000000000       24.974183547752    
  10.400000000000       22.421868261452    
  10.800000000000       27.345624292303    
  11.200000000000       25.127598589954    
  11.600000000000       0.0000000000000    
  12.000000000000       12.497938511500    
  12.400000000000       14.964682391098    
  12.800000000000       17.432268904451    
  13.200000000000       24.927331696591    
  13.600000000000       25.092002077218    
  14.000000000000       20.087775557666    
  14.400000000000       14.991110793215    
  14.800000000000       5.0050893807057    
  15.200000000000       19.989874769607    
  15.600000000000       17.495185393267    
  16.000000000000       22.472169880745    
  16.400000000000       10.016145256298    
  16.800000000000       20.021719506186    
  17.200000000000       5.0297122453693    
  17.600000000000       7.5258351431661    
  18.000000000000       7.5600490875019    
  18.400000000000       2.5324512251024    
  18.800000000000       7.5289511463176    
  19.200000000000       0.0000000000000    
  19.600000000000       2.4740325540563    
  20.000000000000       0.0000000000000    
ZONE T= "Xw:     39.5300      Yw:     34.1100      Rw:    0.100000      Zwbot:     13.5000      Zwtop:     14.0000       Specie:  1 "
 0.40000000000000       0.0000000000000    
 0.80000000000000       0.0000000000000    
  1.2000000000000       0.0000000000000    
  1.6000000000000       0.0000000000000    
  2.0000000000000       0.0000000000000    
  2.4000000000000       0.0000000000000    
  2.8000000000000       0.0000000000000    
  3.2000000000000       2.4920597201380    
  3.6000000000000       0.0000000000000    
  4.0000000000000       2.4920597201380    
  4.4000000000000       0.0000000000000    
  4.8000000000000       0.0000000000000    
  5.2000000000000       0.0000000000000    
  5.6000000000000       0.0000000000000    
  6.0000000000000       0.0000000000000    
  6.4000000000000       0.0000000000000    
  6.8000000000000       0.0000000000000    
  7.2000000000000       4.9696902456848    
  7.6000000000000       9.9314126395339    
  8.0000000000000       4.9439788336606    
  8.4000000000000       5.0018621909528    
  8.8000000000000       2.4935574869210    
  9.2000000000000       0.0000000000000    
  9.6000000000000       5.0180231614318    
  10.000000000000       15.013507777448    
  10.400000000000       4.9600901505170    
  10.800000000000       22.469130010415    
  11.200000000000       37.272006685694    
  11.600000000000       24.860512796407    
  12.000000000000       32.342705744051    
  12.400000000000       34.933700102779    
  12.800000000000       47.461374102870    
  13.200000000000       32.386161900024    
  13.600000000000       24.960367143967    
  14.000000000000       30.096910611251    
  14.400000000000       30.126540301945    
  14.800000000000       42.605300484345    
  15.200000000000       27.523380001491    
  15.600000000000       19.940228068505    
  16.000000000000       24.824534567846    
  16.400000000000       37.463046300285    
  16.800000000000       27.466412151276    
  17.200000000000       12.481288791936    
  17.600000000000       7.5357781973410    
  18.000000000000       12.419503174287    
  18.400000000000       15.028603464423    
  18.800000000000       12.418153474166    
  19.200000000000       17.471600343306    
  19.600000000000       12.459235241242    
  20.000000000000       2.4787182349460    
ZONE T= "Xw:     39.4300      Yw:     34.0100      Rw:    0.100000      Zwbot:     10.5000      Zwtop:     11.1000       Specie:  1 "
 0.40000000000000       22.593206307478    
 0.80000000000000       4.9385710894189    
  1.2000000000000       5.0028263044761    
  1.6000000000000       20.065649535251    
  2.0000000000000       32.546171573936    
  2.4000000000000       37.475618883500    
  2.8000000000000       22.493033170232    
  3.2000000000000       29.966878365901    
  3.6000000000000       32.679948490808    
  4.0000000000000       35.149504007521    
  4.4000000000000       45.359268558302    
  4.8000000000000       37.512771635089    
  5.2000000000000       37.459665491205    
  5.6000000000000       37.504655370310    
  6.0000000000000       24.987564474163    
  6.4000000000000       49.926423181128    
  6.8000000000000       44.924357986956    
  7.2000000000000       27.583147726143    
  7.6000000000000       17.515697996199    
  8.0000000000000       27.641721885182    
  8.4000000000000       0.0000000000000    
  8.8000000000000       17.480858049100    
  9.2000000000000       12.441817059160    
  9.6000000000000       15.001870283592    
  10.000000000000       25.027065828441    