 TITLE="TECPLOT input file: Breakthrough Curves" 
 VARIABLES="Time" "Concentrations" 
ZONE T= "Xw:     39.9300      Yw:     22.4100      Rw:    0.100000      Zwbot:     16.5000      Zwtop:     17.0000       Specie:  1 "
  0.0000000000000       0.0000000000000    
  0.0000000000000       0.0000000000000    
  0.0000000000000       0.0000000000000    
  0.0000000000000       0.0000000000000    
  0.0000000000000       0.0000000000000    
  0.0000000000000       0.0000000000000    
  0.0000000000000       0.0000000000000    
  0.0000000000000       0.0000000000000    
  0.0000000000000       0.0000000000000    
  0.0000000000000       0.0000000000000    
  0.0000000000000       0.0000000000000    
  0.0000000000000       0.0000000000000    
  0.0000000000000       0.0000000000000    
  0.0000000000000       0.0000000000000    
  0.0000000000000       0.0000000000000    
  0.0000000000000       0.0000000000000    
  0.0000000000000       0.0000000000000    
  0.0000000000000       0.0000000000000    
  0.0000000000000       0.0000000000000    
  0.0000000000000       0.0000000000000    
  0.0000000000000       0.0000000000000    
  0.0000000000000       0.0000000000000    
  0.0000000000000       0.0000000000000    
  0.0000000000000       0.0000000000000    
  0.0000000000000       0.0000000000000    
  0.0000000000000       0.0000000000000    
  0.0000000000000       0.0000000000000    
  0.0000000000000       0.0000000000000    
  0.0000000000000       0.0000000000000    
  0.0000000000000       0.0000000000000    
  0.0000000000000       0.0000000000000    
  0.0000000000000       0.0000000000000    
  0.0000000000000       0.0000000000000    
  0.0000000000000       0.0000000000000    
  0.0000000000000       0.0000000000000    
  0.0000000000000       0.0000000000000    
  0.0000000000000       0.0000000000000    
  0.0000000000000       0.0000000000000    
  0.0000000000000       0.0000000000000    
  0.0000000000000       0.0000000000000    
  0.0000000000000       0.0000000000000    
  0.0000000000000       0.0000000000000    
  0.0000000000000       0.0000000000000    
  0.0000000000000       0.0000000000000    
  0.0000000000000       0.0000000000000    
  0.0000000000000       0.0000000000000    
  0.0000000000000       0.0000000000000    
  0.0000000000000       0.0000000000000    
  0.0000000000000       0.0000000000000    
  0.0000000000000       0.0000000000000    
ZONE T= "Xw:     39.9300      Yw:     22.4100      Rw:    0.100000      Zwbot:     13.5000      Zwtop:     14.0000       Specie:  1 "
 0.40000000000000       0.0000000000000    
 0.80000000000000       0.0000000000000    
  1.2000000000000       0.0000000000000    
  1.6000000000000       0.0000000000000    
  2.0000000000000       0.0000000000000    
  2.4000000000000       0.0000000000000    
  2.8000000000000       0.0000000000000    
  3.2000000000000       0.0000000000000    
  3.6000000000000       0.0000000000000    
  4.0000000000000       0.0000000000000    
  4.4000000000000       0.0000000000000    
  4.8000000000000       0.0000000000000    
  5.2000000000000       0.0000000000000    
  5.6000000000000       0.0000000000000    
  6.0000000000000       0.0000000000000    
  6.4000000000000       0.0000000000000    
  6.8000000000000       0.0000000000000    
  7.2000000000000       0.0000000000000    
  7.6000000000000       0.0000000000000    
  8.0000000000000       0.0000000000000    
  8.4000000000000       0.0000000000000    
  8.8000000000000       0.0000000000000    
  9.2000000000000       0.0000000000000    
  9.6000000000000       0.0000000000000    
  10.000000000000       0.0000000000000    
  10.400000000000       0.0000000000000    
  10.800000000000       0.0000000000000    
  11.200000000000       0.0000000000000    
  11.600000000000       0.0000000000000    
  12.000000000000       0.0000000000000    
  12.400000000000       0.0000000000000    
  12.800000000000       0.0000000000000    
  13.200000000000       0.0000000000000    
  13.600000000000       0.0000000000000    
  14.000000000000       2.4953703812672    
  14.400000000000       0.0000000000000    
  14.800000000000       2.4953703812672    
  15.200000000000       0.0000000000000    
  15.600000000000       0.0000000000000    
  16.000000000000       0.0000000000000    
  16.400000000000       0.0000000000000    
  16.800000000000       2.5063775883292    
  17.200000000000       0.0000000000000    
  17.600000000000       0.0000000000000    
  18.000000000000       0.0000000000000    
  18.400000000000       2.5063775883292    
  18.800000000000       9.9515250031517    
  19.200000000000       7.5607689256314    
  19.600000000000       17.649499626667    
  20.000000000000       10.054766912071    
ZONE T= "Xw:     39.9300      Yw:     22.3100      Rw:    0.100000      Zwbot:     10.5000      Zwtop:     11.0000       Specie:  1 "
 0.40000000000000       0.0000000000000    
 0.80000000000000       0.0000000000000    
  1.2000000000000       0.0000000000000    
  1.6000000000000       0.0000000000000    
  2.0000000000000       0.0000000000000    
  2.4000000000000       0.0000000000000    
  2.8000000000000       0.0000000000000    
  3.2000000000000       0.0000000000000    
  3.6000000000000       0.0000000000000    
  4.0000000000000       0.0000000000000    
  4.4000000000000       0.0000000000000    
  4.8000000000000       0.0000000000000    
  5.2000000000000       0.0000000000000    
  5.6000000000000       14.993310929094    
  6.0000000000000       0.0000000000000    
  6.4000000000000       2.4716193570677    
  6.8000000000000       12.486389929675    
  7.2000000000000       12.450670322446    
  7.6000000000000       7.5196661398611    
  8.0000000000000       12.558911662792    
  8.4000000000000       17.454400332873    
  8.8000000000000       7.5153521257400    
  9.2000000000000       20.127326077601    
  9.6000000000000       9.9881050838413    
  10.000000000000       30.078796180704    
  10.400000000000       22.502460972812    
  10.800000000000       60.001242351400    
  11.200000000000       47.389249958252    
  11.600000000000       20.011158199263    
  12.000000000000       12.490856312589    
  12.400000000000       17.505652291209    
  12.800000000000       15.065355307501    
  13.200000000000       27.414581637631    
  13.600000000000       37.455841902524    
  14.000000000000       29.903026744423    
  14.400000000000       32.525552537247    
  14.800000000000       22.524190832693    
  15.200000000000       35.072054909024    
  15.600000000000       27.578390131144    
  16.000000000000       15.028604794900    
  16.400000000000       9.9916593073477    
  16.800000000000       22.517272262217    
  17.200000000000       30.042623663723    
  17.600000000000       12.496970059913    
  18.000000000000       10.001021237831    
  18.400000000000       0.0000000000000    
  18.800000000000       0.0000000000000    
  19.200000000000       4.9710458635699    
  19.600000000000       0.0000000000000    
  20.000000000000       0.0000000000000    
ZONE T= "Xw:     40.0300      Yw:     22.4100      Rw:    0.100000      Zwbot:     7.60000      Zwtop:     8.10000       Specie:  1 "
 0.40000000000000       0.0000000000000    
 0.80000000000000       0.0000000000000    
  1.2000000000000       0.0000000000000    
  1.6000000000000       0.0000000000000    
  2.0000000000000       0.0000000000000    
  2.4000000000000       0.0000000000000    
  2.8000000000000       0.0000000000000    
  3.2000000000000       0.0000000000000    
  3.6000000000000       0.0000000000000    
  4.0000000000000       0.0000000000000    
  4.4000000000000       0.0000000000000    
  4.8000000000000       12.519835080919    
  5.2000000000000       7.4292336814717    
  5.6000000000000       12.508870876197    
  6.0000000000000       10.007369873168    
  6.4000000000000       14.941265389422    
  6.8000000000000       14.952403359041    
  7.2000000000000       27.409445339080    
  7.6000000000000       59.773642612284    
  8.0000000000000       24.933184924803    
  8.4000000000000       22.422983882491    
  8.8000000000000       47.553948067470    
  9.2000000000000       72.580267988717    
  9.6000000000000       42.668742458298    
  10.000000000000       40.142691962857    
  10.400000000000       40.051377859682    
  10.800000000000       62.545376077351    
  11.200000000000       67.431365366896    
  11.600000000000       37.455803858800    
  12.000000000000       39.890310230069    
  12.400000000000       32.523286535042    
  12.800000000000       44.930840599929    
  13.200000000000       35.035574726716    
  13.600000000000       34.984926240535    
  14.000000000000       64.871740787596    
  14.400000000000       25.002336811952    
  14.800000000000       44.935836933273    
  15.200000000000       37.560075124040    
  15.600000000000       29.887878006749    
  16.000000000000       25.018753051555    
  16.400000000000       17.493767971779    
  16.800000000000       2.5156168353031    
  17.200000000000       12.415183700882    
  17.600000000000       14.918132235633    
  18.000000000000       7.4702398247598    
  18.400000000000       0.0000000000000    
  18.800000000000       4.9902168869109    
  19.200000000000       22.403213606900    
  19.600000000000       7.4897482037642    
  20.000000000000       4.9755854012929    
ZONE T= "Xw:     39.9300      Yw:     22.4100      Rw:    0.100000      Zwbot:     4.50000      Zwtop:     5.00000       Specie:  1 "
 0.40000000000000       0.0000000000000    
 0.80000000000000       0.0000000000000    
  1.2000000000000       0.0000000000000    
  1.6000000000000       0.0000000000000    
  2.0000000000000       0.0000000000000    
  2.4000000000000       0.0000000000000    
  2.8000000000000       0.0000000000000    
  3.2000000000000       0.0000000000000    
  3.6000000000000       0.0000000000000    
  4.0000000000000       0.0000000000000    
  4.4000000000000       10.053521675943    
  4.8000000000000       14.919954506499    
  5.2000000000000       7.4798117999642    
  5.6000000000000       14.996549667149    
  6.0000000000000       22.509389247612    
  6.4000000000000       34.923507757328    
  6.8000000000000       64.869176926151    
  7.2000000000000       44.839578935060    
  7.6000000000000       37.380634206993    
  8.0000000000000       39.887957345348    
  8.4000000000000       32.443902759345    
  8.8000000000000       44.986064146164    
  9.2000000000000       35.055835156510    
  9.6000000000000       27.568302841773    
  10.000000000000       44.907636242017    
  10.400000000000       37.362192363224    
  10.800000000000       32.414655388298    
  11.200000000000       27.432975394360    
  11.600000000000       29.962188549283    
  12.000000000000       19.897104524052    
  12.400000000000       25.030948806845    
  12.800000000000       35.102546722706    
  13.200000000000       20.055800323141    
  13.600000000000       32.454326012410    
  14.000000000000       25.014671929998    
  14.400000000000       22.514967858119    
  14.800000000000       5.0138664871719    
  15.200000000000       10.000412210443    
  15.600000000000       15.065470571561    
  16.000000000000       17.616462337156    
  16.400000000000       12.492254669199    
  16.800000000000       5.0296169665920    
  17.200000000000       5.0078207881125    
  17.600000000000       0.0000000000000    
  18.000000000000       0.0000000000000    
  18.400000000000       2.4858617909322    
  18.800000000000       2.5190083733599    
  19.200000000000       2.5190083733599    
  19.600000000000       2.5044871180232    
  20.000000000000       0.0000000000000    
ZONE T= "Xw:     39.8300      Yw:     28.4100      Rw:    0.100000      Zwbot:     16.5000      Zwtop:     17.0000       Specie:  1 "
 0.40000000000000       0.0000000000000    
 0.80000000000000       0.0000000000000    
  1.2000000000000       0.0000000000000    
  1.6000000000000       0.0000000000000    
  2.0000000000000       0.0000000000000    
  2.4000000000000       0.0000000000000    
  2.8000000000000       0.0000000000000    
  3.2000000000000       0.0000000000000    
  3.6000000000000       0.0000000000000    
  4.0000000000000       0.0000000000000    
  4.4000000000000       0.0000000000000    
  4.8000000000000       0.0000000000000    
  5.2000000000000       0.0000000000000    
  5.6000000000000       2.4916524818158    
  6.0000000000000       0.0000000000000    
  6.4000000000000       0.0000000000000    
  6.8000000000000       2.4916524818158    
  7.2000000000000       2.5155922563976    
  7.6000000000000       0.0000000000000    
  8.0000000000000       0.0000000000000    
  8.4000000000000       7.5541444482200    
  8.8000000000000       0.0000000000000    
  9.2000000000000       0.0000000000000    
  9.6000000000000       7.5092792478208    
  10.000000000000       2.5229599354247    
  10.400000000000       12.425119065968    
  10.800000000000       12.472389729510    
  11.200000000000       5.0861620119978    
  11.600000000000       17.590393108892    
  12.000000000000       15.091820900533    
  12.400000000000       15.072930956080    
  12.800000000000       32.656941245015    
  13.200000000000       32.673419654403    
  13.600000000000       19.981785458453    
  14.000000000000       20.187029078254    
  14.400000000000       2.5114677399366    
  14.800000000000       5.0229354798731    
  15.200000000000       12.589016488972    
  15.600000000000       10.031293668756    
  16.000000000000       14.995635702930    
  16.400000000000       0.0000000000000    
  16.800000000000       7.4834355011175    
  17.200000000000       22.553355121413    
  17.600000000000       9.9153559574774    
  18.000000000000       10.040746372231    
  18.400000000000       12.392810451351    
  18.800000000000       12.435120085892    
  19.200000000000       14.923596188762    
  19.600000000000       19.871260383293    
  20.000000000000       17.394592504617    
ZONE T= "Xw:     39.9300      Yw:     28.4100      Rw:    0.100000      Zwbot:     13.5000      Zwtop:     14.0000       Specie:  1 "
 0.40000000000000       0.0000000000000    
 0.80000000000000       0.0000000000000    
  1.2000000000000       0.0000000000000    
  1.6000000000000       0.0000000000000    
  2.0000000000000       0.0000000000000    
  2.4000000000000       0.0000000000000    
  2.8000000000000       0.0000000000000    
  3.2000000000000       0.0000000000000    
  3.6000000000000       0.0000000000000    
  4.0000000000000       0.0000000000000    
  4.4000000000000       0.0000000000000    
  4.8000000000000       0.0000000000000    
  5.2000000000000       0.0000000000000    
  5.6000000000000       0.0000000000000    
  6.0000000000000       0.0000000000000    
  6.4000000000000       0.0000000000000    
  6.8000000000000       0.0000000000000    
  7.2000000000000       0.0000000000000    
  7.6000000000000       0.0000000000000    
  8.0000000000000       0.0000000000000    
  8.4000000000000       0.0000000000000    
  8.8000000000000       0.0000000000000    
  9.2000000000000       0.0000000000000    
  9.6000000000000       5.0461068645870    
  10.000000000000       2.5158246948227    
  10.400000000000       0.0000000000000    
  10.800000000000       10.092213729174    
  11.200000000000       0.0000000000000    
  11.600000000000       0.0000000000000    
  12.000000000000       0.0000000000000    
  12.400000000000       0.0000000000000    
  12.800000000000       0.0000000000000    
  13.200000000000       0.0000000000000    
  13.600000000000       0.0000000000000    
  14.000000000000       0.0000000000000    
  14.400000000000       0.0000000000000    
  14.800000000000       5.0393034265548    
  15.200000000000       2.5196517132774    
  15.600000000000       2.5114677399366    
  16.000000000000       0.0000000000000    
  16.400000000000       2.5196517132774    
  16.800000000000       0.0000000000000    
  17.200000000000       20.025048022040    
  17.600000000000       0.0000000000000    
  18.000000000000       10.053734272959    
  18.400000000000       12.573385986236    
  18.800000000000       5.0268671364793    
  19.200000000000       10.002583492511    
  19.600000000000       7.4456667116705    
  20.000000000000       5.0307322514947    
ZONE T= "Xw:     39.8300      Yw:     28.4100      Rw:    0.100000      Zwbot:     10.6000      Zwtop:     11.2000       Specie:  1 "
 0.40000000000000       0.0000000000000    
 0.80000000000000       0.0000000000000    
  1.2000000000000       0.0000000000000    
  1.6000000000000       2.5110496949189    
  2.0000000000000       0.0000000000000    
  2.4000000000000       0.0000000000000    
  2.8000000000000       5.0271088670831    
  3.2000000000000       2.4770721078896    
  3.6000000000000       10.071766868865    
  4.0000000000000       7.5206293480131    
  4.4000000000000       25.103491767515    
  4.8000000000000       7.4771103402401    
  5.2000000000000       15.073926298665    
  5.6000000000000       15.097014285448    
  6.0000000000000       10.000229811308    
  6.4000000000000       14.984966854742    
  6.8000000000000       22.623692204039    
  7.2000000000000       40.114772770341    
  7.6000000000000       34.920594444807    
  8.0000000000000       30.093355759027    
  8.4000000000000       30.203331270687    
  8.8000000000000       17.576345751806    
  9.2000000000000       20.059520489947    
  9.6000000000000       39.915333184174    
  10.000000000000       64.947032309827    
  10.400000000000       35.225159639708    
  10.800000000000       27.375957250347    
  11.200000000000       22.445278007758    
  11.600000000000       22.591249273851    
  12.000000000000       30.106640393067    
  12.400000000000       12.475335555577    
  12.800000000000       12.516705934358    
  13.200000000000       17.689626388452    
  13.600000000000       22.728475719318    
  14.000000000000       15.244714113992    
  14.400000000000       17.454112586674    
  14.800000000000       47.792625162863    
  15.200000000000       12.554063933428    
  15.600000000000       22.650458604835    
  16.000000000000       27.553326655379    
  16.400000000000       9.9787577557543    
  16.800000000000       22.545619711224    
  17.200000000000       24.948145400084    
  17.600000000000       4.9766637584178    
  18.000000000000       12.511682693088    
  18.400000000000       7.5012850149668    
  18.800000000000       9.9049416803823    
  19.200000000000       12.378679848026    
  19.600000000000       0.0000000000000    
  20.000000000000       0.0000000000000    
ZONE T= "Xw:     39.8300      Yw:     28.4100      Rw:    0.100000      Zwbot:     7.60000      Zwtop:     8.30000       Specie:  1 "
 0.40000000000000       0.0000000000000    
 0.80000000000000       0.0000000000000    
  1.2000000000000       0.0000000000000    
  1.6000000000000       0.0000000000000    
  2.0000000000000       2.4802759721565    
  2.4000000000000       2.4802759721565    
  2.8000000000000       2.4802759721565    
  3.2000000000000       4.9582132394847    
  3.6000000000000       2.4997661438880    
  4.0000000000000       4.9995322877759    
  4.4000000000000       9.9477914730996    
  4.8000000000000       12.466705451422    
  5.2000000000000       12.451818823422    
  5.6000000000000       29.778104456940    
  6.0000000000000       17.418377308859    
  6.4000000000000       12.392295744364    
  6.8000000000000       12.477591832324    
  7.2000000000000       14.955066273963    
  7.6000000000000       42.656348541054    
  8.0000000000000       7.5377549287139    
  8.4000000000000       32.471350099675    
  8.8000000000000       27.490201821747    
  9.2000000000000       20.005282843406    
  9.6000000000000       30.006433418330    
  10.000000000000       32.527003257262    
  10.400000000000       27.658857296020    
  10.800000000000       25.030069892344    
  11.200000000000       27.433367411966    
  11.600000000000       30.136895563760    
  12.000000000000       32.705532921709    
  12.400000000000       17.543156654915    
  12.800000000000       32.637171901583    
  13.200000000000       40.342393559272    
  13.600000000000       25.052773252615    
  14.000000000000       22.591385014127    
  14.400000000000       20.010830626113    
  14.800000000000       14.959927340168    
  15.200000000000       15.032091735452    
  15.600000000000       20.079525041301    
  16.000000000000       30.110738953869    
  16.400000000000       27.464852202763    
  16.800000000000       47.400064453895    
  17.200000000000       37.507003295915    
  17.600000000000       29.943161725956    
  18.000000000000       47.478258876603    
  18.400000000000       40.059966820219    
  18.800000000000       35.093072213929    
  19.200000000000       20.048402280326    
  19.600000000000       17.371456983018    
  20.000000000000       19.942494732306    
ZONE T= "Xw:     39.8300      Yw:     28.5100      Rw:    0.100000      Zwbot:     4.50000      Zwtop:     5.00000       Specie:  1 "
 0.40000000000000       10.103754093939    
 0.80000000000000       2.5148844692333    
  1.2000000000000       17.516547621704    
  1.6000000000000       22.512931714792    
  2.0000000000000       7.4538673767495    
  2.4000000000000       9.9909125362635    
  2.8000000000000       40.005455799450    
  3.2000000000000       27.414904451658    
  3.6000000000000       22.447481372095    
  4.0000000000000       39.811461021168    
  4.4000000000000       42.446519411126    
  4.8000000000000       45.261530359265    
  5.2000000000000       47.602618344266    
  5.6000000000000       37.310994262939    
  6.0000000000000       37.580983533151    
  6.4000000000000       32.630428425005    
  6.8000000000000       22.406939461594    
  7.2000000000000       29.979699076977    
  7.6000000000000       52.281219341467    
  8.0000000000000       30.172911506486    
  8.4000000000000       22.620215821582    
  8.8000000000000       7.6090371583086    
  9.2000000000000       35.024892546185    
  9.6000000000000       25.038314620620    
  10.000000000000       40.174685824261    
  10.400000000000       22.584980503838    
  10.800000000000       12.559527230736    
  11.200000000000       27.493059829435    
  11.600000000000       27.607875886422    
  12.000000000000       24.943910079536    
  12.400000000000       17.660637141487    
  12.800000000000       9.9563345172942    
  13.200000000000       10.069602243099    
  13.600000000000       4.9873277900406    
  14.000000000000       0.0000000000000    
  14.400000000000       2.4936638950203    
  14.800000000000       7.5018680053552    
  15.200000000000       5.0067918383137    
  15.600000000000       7.4808969752535    
  16.000000000000       0.0000000000000    
  16.400000000000       0.0000000000000    
  16.800000000000       2.4741051369398    
  17.200000000000       0.0000000000000    
  17.600000000000       0.0000000000000    
  18.000000000000       0.0000000000000    
  18.400000000000       0.0000000000000    
  18.800000000000       0.0000000000000    
  19.200000000000       0.0000000000000    
  19.600000000000       0.0000000000000    
  20.000000000000       0.0000000000000    
ZONE T= "Xw:     39.5300      Yw:     34.0100      Rw:    0.100000      Zwbot:     16.7000      Zwtop:     17.3000       Specie:  1 "
 0.40000000000000       0.0000000000000    
 0.80000000000000       0.0000000000000    
  1.2000000000000       2.4703005479036    
  1.6000000000000       5.0267107922381    
  2.0000000000000       14.968647761292    
  2.4000000000000       7.4645025488257    
  2.8000000000000       7.5238807009871    
  3.2000000000000       12.483056892392    
  3.6000000000000       20.117759000718    
  4.0000000000000       15.027851653720    
  4.4000000000000       15.086901325514    
  4.8000000000000       5.0284745808484    
  5.2000000000000       17.514929741810    
  5.6000000000000       25.077295572933    
  6.0000000000000       19.950595672868    
  6.4000000000000       2.5133553961191    
  6.8000000000000       12.549045084877    
  7.2000000000000       7.4784004375993    
  7.6000000000000       15.004991459459    
  8.0000000000000       19.905494702056    
  8.4000000000000       34.970322929783    
  8.8000000000000       24.922856751420    
  9.2000000000000       20.023359296532    
  9.6000000000000       17.472141952377    
  10.000000000000       12.507481682222    
  10.400000000000       17.378514889156    
  10.800000000000       12.522367818071    
  11.200000000000       7.4307965882217    
  11.600000000000       12.438612742284    
  12.000000000000       2.4871821120920    
  12.400000000000       12.481628057913    
  12.800000000000       17.427148662944    
  13.200000000000       17.492220600471    
  13.600000000000       12.418109071988    
  14.000000000000       22.609256829674    
  14.400000000000       14.977638158770    
  14.800000000000       10.014434705178    
  15.200000000000       24.922598665307    
  15.600000000000       17.553284284321    
  16.000000000000       12.547443817509    
  16.400000000000       5.0188507030196    
  16.800000000000       2.4952425986572    
  17.200000000000       7.4732077044690    
  17.600000000000       15.023933437592    
  18.000000000000       2.4952425986572    
  18.400000000000       2.5284120109806    
  18.800000000000       2.4865817461154    
  19.200000000000       17.462272917302    
  19.600000000000       4.9720579519829    
  20.000000000000       7.4934048620169    
ZONE T= "Xw:     39.5300      Yw:     34.1100      Rw:    0.100000      Zwbot:     13.5000      Zwtop:     14.0000       Specie:  1 "
 0.40000000000000       0.0000000000000    
 0.80000000000000       0.0000000000000    
  1.2000000000000       0.0000000000000    
  1.6000000000000       0.0000000000000    
  2.0000000000000       0.0000000000000    
  2.4000000000000       0.0000000000000    
  2.8000000000000       0.0000000000000    
  3.2000000000000       0.0000000000000    
  3.6000000000000       0.0000000000000    
  4.0000000000000       0.0000000000000    
  4.4000000000000       2.5254655875835    
  4.8000000000000       2.5254655875835    
  5.2000000000000       7.5350820934433    
  5.6000000000000       5.0509311751670    
  6.0000000000000       0.0000000000000    
  6.4000000000000       17.527995891565    
  6.8000000000000       5.0096165058599    
  7.2000000000000       2.5254655875835    
  7.6000000000000       12.506304145272    
  8.0000000000000       4.9719497944307    
  8.4000000000000       12.443985576217    
  8.8000000000000       7.5043468963759    
  9.2000000000000       15.025708276392    
  9.6000000000000       32.442895117916    
  10.000000000000       7.5326750882470    
  10.400000000000       32.473263448578    
  10.800000000000       29.936889503064    
  11.200000000000       39.832897521833    
  11.600000000000       27.573304806661    
  12.000000000000       22.496448485909    
  12.400000000000       27.545716982458    
  12.800000000000       30.037472887553    
  13.200000000000       39.946473411398    
  13.600000000000       27.449961423995    
  14.000000000000       22.518626498559    
  14.400000000000       32.520552764039    
  14.800000000000       24.918469120930    
  15.200000000000       19.916947379075    
  15.600000000000       12.396833672025    
  16.000000000000       9.9818313796389    
  16.400000000000       24.892949512667    
  16.800000000000       22.559805014338    
  17.200000000000       12.485198855046    
  17.600000000000       9.9448963485638    
  18.000000000000       9.9443189688820    
  18.400000000000       15.002310813338    
  18.800000000000       17.467425368525    
  19.200000000000       17.467747887653    
  19.600000000000       20.057461393714    
  20.000000000000       12.501649624904    
ZONE T= "Xw:     39.4300      Yw:     34.0100      Rw:    0.100000      Zwbot:     10.5000      Zwtop:     11.1000       Specie:  1 "
 0.40000000000000       79.901964868904    
 0.80000000000000       35.087672998018    
  1.2000000000000       27.711120421091    
  1.6000000000000       22.577693990348    
  2.0000000000000       12.556164836206    
  2.4000000000000       22.647150978531    
  2.8000000000000       37.745205325825    
  3.2000000000000       25.199942847720    
  3.6000000000000       44.878949638382    
  4.0000000000000       47.615215003533    
  4.4000000000000       27.574886775173    
  4.8000000000000       35.081147552646    
  5.2000000000000       54.989198225530    
  5.6000000000000       37.546203928511    
  6.0000000000000       44.973652859896    
  6.4000000000000       44.975607930697    
  6.8000000000000       60.022204211800    
  7.2000000000000       32.442006679221    
  7.6000000000000       34.906805734983    
  8.0000000000000       45.016870388103    
  8.4000000000000       32.530957586484    
  8.8000000000000       42.560323416995    
  9.2000000000000       22.582805559196    
  9.6000000000000       39.962394098149    
  10.000000000000       10.036310516868    