 TITLE="TECPLOT input file: Breakthrough Curves" 
 VARIABLES="Time" "Concentrations" 
ZONE T= "Xw:     39.9300      Yw:     22.4100      Rw:    0.100000      Zwbot:     16.5000      Zwtop:     17.0000       Specie:  1 "
 0.40000000000000       0.0000000000000    
 0.80000000000000       0.0000000000000    
  1.2000000000000       0.0000000000000    
  1.6000000000000       0.0000000000000    
  2.0000000000000       0.0000000000000    
  2.4000000000000       0.0000000000000    
  2.8000000000000       0.0000000000000    
  3.2000000000000       0.0000000000000    
  3.6000000000000       0.0000000000000    
  4.0000000000000       0.0000000000000    
  4.4000000000000       0.0000000000000    
  4.8000000000000       0.0000000000000    
  5.2000000000000       0.0000000000000    
  5.6000000000000       0.0000000000000    
  6.0000000000000       0.0000000000000    
  6.4000000000000       0.0000000000000    
  6.8000000000000       0.0000000000000    
  7.2000000000000       0.0000000000000    
  7.6000000000000       0.0000000000000    
  8.0000000000000       0.0000000000000    
  8.4000000000000       0.0000000000000    
  8.8000000000000       0.0000000000000    
  9.2000000000000       0.0000000000000    
  9.6000000000000       0.0000000000000    
  10.000000000000       0.0000000000000    
  10.400000000000       0.0000000000000    
  10.800000000000       0.0000000000000    
  11.200000000000       0.0000000000000    
  11.600000000000       0.0000000000000    
  12.000000000000       0.0000000000000    
  12.400000000000       0.0000000000000    
  12.800000000000       0.0000000000000    
  13.200000000000       0.0000000000000    
  13.600000000000       0.0000000000000    
  14.000000000000       0.0000000000000    
  14.400000000000       0.0000000000000    
  14.800000000000       0.0000000000000    
  15.200000000000       0.0000000000000    
  15.600000000000       0.0000000000000    
  16.000000000000       0.0000000000000    
  16.400000000000       0.0000000000000    
  16.800000000000       0.0000000000000    
  17.200000000000       2.5191918600975    
  17.600000000000       2.5032547667116    
  18.000000000000       5.0065095334231    
  18.400000000000       0.0000000000000    
  18.800000000000       0.0000000000000    
  19.200000000000       5.0224466268091    
  19.600000000000       2.5032547667116    
  20.000000000000       0.0000000000000    
ZONE T= "Xw:     39.9300      Yw:     22.4100      Rw:    0.100000      Zwbot:     13.5000      Zwtop:     14.0000       Specie:  1 "
 0.40000000000000       0.0000000000000    
 0.80000000000000       0.0000000000000    
  1.2000000000000       0.0000000000000    
  1.6000000000000       0.0000000000000    
  2.0000000000000       0.0000000000000    
  2.4000000000000       0.0000000000000    
  2.8000000000000       0.0000000000000    
  3.2000000000000       0.0000000000000    
  3.6000000000000       0.0000000000000    
  4.0000000000000       0.0000000000000    
  4.4000000000000       0.0000000000000    
  4.8000000000000       0.0000000000000    
  5.2000000000000       0.0000000000000    
  5.6000000000000       0.0000000000000    
  6.0000000000000       0.0000000000000    
  6.4000000000000       0.0000000000000    
  6.8000000000000       0.0000000000000    
  7.2000000000000       0.0000000000000    
  7.6000000000000       0.0000000000000    
  8.0000000000000       0.0000000000000    
  8.4000000000000       0.0000000000000    
  8.8000000000000       0.0000000000000    
  9.2000000000000       0.0000000000000    
  9.6000000000000       0.0000000000000    
  10.000000000000       0.0000000000000    
  10.400000000000       0.0000000000000    
  10.800000000000       0.0000000000000    
  11.200000000000       0.0000000000000    
  11.600000000000       0.0000000000000    
  12.000000000000       0.0000000000000    
  12.400000000000       0.0000000000000    
  12.800000000000       0.0000000000000    
  13.200000000000       0.0000000000000    
  13.600000000000       0.0000000000000    
  14.000000000000       0.0000000000000    
  14.400000000000       0.0000000000000    
  14.800000000000       0.0000000000000    
  15.200000000000       2.5066033855751    
  15.600000000000       0.0000000000000    
  16.000000000000       0.0000000000000    
  16.400000000000       4.9832703580809    
  16.800000000000       4.9832703580809    
  17.200000000000       2.4822457361579    
  17.600000000000       0.0000000000000    
  18.000000000000       2.4876486728496    
  18.400000000000       4.9698944090075    
  18.800000000000       14.935180366761    
  19.200000000000       2.4876486728496    
  19.600000000000       2.4876486728496    
  20.000000000000       0.0000000000000    
ZONE T= "Xw:     39.9300      Yw:     22.3100      Rw:    0.100000      Zwbot:     10.5000      Zwtop:     11.0000       Specie:  1 "
 0.40000000000000       0.0000000000000    
 0.80000000000000       0.0000000000000    
  1.2000000000000       0.0000000000000    
  1.6000000000000       0.0000000000000    
  2.0000000000000       0.0000000000000    
  2.4000000000000       0.0000000000000    
  2.8000000000000       0.0000000000000    
  3.2000000000000       0.0000000000000    
  3.6000000000000       2.4804616586680    
  4.0000000000000       0.0000000000000    
  4.4000000000000       7.4953290522824    
  4.8000000000000       12.520381970063    
  5.2000000000000       12.479226023136    
  5.6000000000000       0.0000000000000    
  6.0000000000000       10.057931136031    
  6.4000000000000       7.5336748794008    
  6.8000000000000       10.019686013124    
  7.2000000000000       9.9832248286576    
  7.6000000000000       12.457516921758    
  8.0000000000000       39.913861298088    
  8.4000000000000       42.649396644639    
  8.8000000000000       37.546954018019    
  9.2000000000000       30.062657389440    
  9.6000000000000       19.967575898696    
  10.000000000000       49.953622640413    
  10.400000000000       22.424520884197    
  10.800000000000       22.487575157611    
  11.200000000000       34.905126150690    
  11.600000000000       40.011216474129    
  12.000000000000       15.008694496060    
  12.400000000000       20.118425950487    
  12.800000000000       32.573588767843    
  13.200000000000       34.913928079745    
  13.600000000000       19.944702914285    
  14.000000000000       34.905537202030    
  14.400000000000       22.453220836641    
  14.800000000000       14.988710367934    
  15.200000000000       25.037229887393    
  15.600000000000       15.046216003594    
  16.000000000000       35.035978811806    
  16.400000000000       20.085649680818    
  16.800000000000       12.551833323692    
  17.200000000000       12.526853582051    
  17.600000000000       14.988017558422    
  18.000000000000       12.467230437793    
  18.400000000000       7.5257779304817    
  18.800000000000       2.5090639394734    
  19.200000000000       7.5661331391290    
  19.600000000000       9.9950510836081    
  20.000000000000       2.4754811620944    
ZONE T= "Xw:     40.0300      Yw:     22.4100      Rw:    0.100000      Zwbot:     7.60000      Zwtop:     8.10000       Specie:  1 "
 0.40000000000000       0.0000000000000    
 0.80000000000000       0.0000000000000    
  1.2000000000000       0.0000000000000    
  1.6000000000000       0.0000000000000    
  2.0000000000000       0.0000000000000    
  2.4000000000000       0.0000000000000    
  2.8000000000000       0.0000000000000    
  3.2000000000000       0.0000000000000    
  3.6000000000000       0.0000000000000    
  4.0000000000000       0.0000000000000    
  4.4000000000000       7.5608652201174    
  4.8000000000000       0.0000000000000    
  5.2000000000000       7.5493035137224    
  5.6000000000000       4.9910078276237    
  6.0000000000000       20.112421552382    
  6.4000000000000       7.5157546924038    
  6.8000000000000       14.980862276345    
  7.2000000000000       7.5074684747881    
  7.6000000000000       12.506330650085    
  8.0000000000000       47.616373088817    
  8.4000000000000       30.058607456727    
  8.8000000000000       47.521756466217    
  9.2000000000000       54.928253022988    
  9.6000000000000       47.430825932342    
  10.000000000000       27.490788040511    
  10.400000000000       27.495172290278    
  10.800000000000       32.508936381028    
  11.200000000000       14.957472429377    
  11.600000000000       50.101956137219    
  12.000000000000       37.560583361275    
  12.400000000000       35.075505731252    
  12.800000000000       65.330264476441    
  13.200000000000       37.515689013495    
  13.600000000000       50.036012838806    
  14.000000000000       70.061917846937    
  14.400000000000       27.490849667768    
  14.800000000000       25.152920703754    
  15.200000000000       27.575472352108    
  15.600000000000       15.046506414694    
  16.000000000000       12.503242601015    
  16.400000000000       12.542974060116    
  16.800000000000       10.004332382687    
  17.200000000000       2.4778158287491    
  17.600000000000       2.4778158287491    
  18.000000000000       2.4778158287491    
  18.400000000000       17.416777891446    
  18.800000000000       4.9796540208988    
  19.200000000000       19.848031224111    
  19.600000000000       5.0282930054100    
  20.000000000000       0.0000000000000    
ZONE T= "Xw:     39.9300      Yw:     22.4100      Rw:    0.100000      Zwbot:     4.50000      Zwtop:     5.00000       Specie:  1 "
 0.40000000000000       0.0000000000000    
 0.80000000000000       0.0000000000000    
  1.2000000000000       0.0000000000000    
  1.6000000000000       0.0000000000000    
  2.0000000000000       0.0000000000000    
  2.4000000000000       0.0000000000000    
  2.8000000000000       0.0000000000000    
  3.2000000000000       0.0000000000000    
  3.6000000000000       0.0000000000000    
  4.0000000000000       0.0000000000000    
  4.4000000000000       5.0028563662471    
  4.8000000000000       9.9694736829026    
  5.2000000000000       0.0000000000000    
  5.6000000000000       12.500169394529    
  6.0000000000000       15.078540607882    
  6.4000000000000       27.644452068906    
  6.8000000000000       27.653397233922    
  7.2000000000000       35.195008662386    
  7.6000000000000       27.465838774897    
  8.0000000000000       32.454433112987    
  8.4000000000000       14.961883674675    
  8.8000000000000       22.549475036272    
  9.2000000000000       30.026246977741    
  9.6000000000000       42.382071890432    
  10.000000000000       67.446132278432    
  10.400000000000       75.057704528021    
  10.800000000000       37.480182093811    
  11.200000000000       27.502548963225    
  11.600000000000       37.560521406094    
  12.000000000000       22.641352561706    
  12.400000000000       29.955169000777    
  12.800000000000       30.016171880927    
  13.200000000000       39.953081146929    
  13.600000000000       27.520492905290    
  14.000000000000       39.956120487053    
  14.400000000000       17.487088379003    
  14.800000000000       5.0062385871905    
  15.200000000000       15.092926918303    
  15.600000000000       14.996273634005    
  16.000000000000       2.5042654855987    
  16.400000000000       5.0206927982112    
  16.800000000000       2.4960263202154    
  17.200000000000       7.4709805267957    
  17.600000000000       0.0000000000000    
  18.000000000000       4.9920526404307    
  18.400000000000       4.9578557727299    
  18.800000000000       7.4988631087194    
  19.200000000000       5.0216046765118    
  19.600000000000       4.9953915487455    
  20.000000000000       0.0000000000000    
ZONE T= "Xw:     39.8300      Yw:     28.4100      Rw:    0.100000      Zwbot:     16.5000      Zwtop:     17.0000       Specie:  1 "
 0.40000000000000       0.0000000000000    
 0.80000000000000       0.0000000000000    
  1.2000000000000       0.0000000000000    
  1.6000000000000       0.0000000000000    
  2.0000000000000       0.0000000000000    
  2.4000000000000       0.0000000000000    
  2.8000000000000       0.0000000000000    
  3.2000000000000       0.0000000000000    
  3.6000000000000       0.0000000000000    
  4.0000000000000       0.0000000000000    
  4.4000000000000       0.0000000000000    
  4.8000000000000       0.0000000000000    
  5.2000000000000       0.0000000000000    
  5.6000000000000       2.4864397074788    
  6.0000000000000       5.0023019207401    
  6.4000000000000       0.0000000000000    
  6.8000000000000       2.5011509603701    
  7.2000000000000       9.9207048044219    
  7.6000000000000       7.4246457838886    
  8.0000000000000       7.4038058710417    
  8.4000000000000       7.5132223649193    
  8.8000000000000       9.9210665341958    
  9.2000000000000       9.9090998753790    
  9.6000000000000       14.867107277277    
  10.000000000000       12.409118124093    
  10.400000000000       17.323595362987    
  10.800000000000       9.9935490863319    
  11.200000000000       17.407324504734    
  11.600000000000       22.445385076766    
  12.000000000000       7.4738498323957    
  12.400000000000       4.9492202168774    
  12.800000000000       4.9634338679871    
  13.200000000000       4.9813382090348    
  13.600000000000       4.9929138161554    
  14.000000000000       12.562576519254    
  14.400000000000       2.4815893738732    
  14.800000000000       7.5681549301704    
  15.200000000000       5.0184361546368    
  15.600000000000       17.579873858847    
  16.000000000000       0.0000000000000    
  16.400000000000       10.005747657043    
  16.800000000000       17.633291106818    
  17.200000000000       20.108332558503    
  17.600000000000       9.9921731970273    
  18.000000000000       2.5282666663776    
  18.400000000000       12.570725443320    
  18.800000000000       7.5105838231542    
  19.200000000000       2.5192718974856    
  19.600000000000       0.0000000000000    
  20.000000000000       0.0000000000000    
ZONE T= "Xw:     39.9300      Yw:     28.4100      Rw:    0.100000      Zwbot:     13.5000      Zwtop:     14.0000       Specie:  1 "
 0.40000000000000       0.0000000000000    
 0.80000000000000       0.0000000000000    
  1.2000000000000       0.0000000000000    
  1.6000000000000       0.0000000000000    
  2.0000000000000       0.0000000000000    
  2.4000000000000       0.0000000000000    
  2.8000000000000       0.0000000000000    
  3.2000000000000       0.0000000000000    
  3.6000000000000       0.0000000000000    
  4.0000000000000       0.0000000000000    
  4.4000000000000       0.0000000000000    
  4.8000000000000       0.0000000000000    
  5.2000000000000       0.0000000000000    
  5.6000000000000       0.0000000000000    
  6.0000000000000       0.0000000000000    
  6.4000000000000       0.0000000000000    
  6.8000000000000       0.0000000000000    
  7.2000000000000       0.0000000000000    
  7.6000000000000       0.0000000000000    
  8.0000000000000       0.0000000000000    
  8.4000000000000       0.0000000000000    
  8.8000000000000       0.0000000000000    
  9.2000000000000       0.0000000000000    
  9.6000000000000       7.5810117263024    
  10.000000000000       0.0000000000000    
  10.400000000000       0.0000000000000    
  10.800000000000       0.0000000000000    
  11.200000000000       2.4800196537355    
  11.600000000000       0.0000000000000    
  12.000000000000       4.9600393074710    
  12.400000000000       7.4870432162385    
  12.800000000000       15.003136404456    
  13.200000000000       4.9241707413656    
  13.600000000000       0.0000000000000    
  14.000000000000       0.0000000000000    
  14.400000000000       4.9241707413656    
  14.800000000000       2.4620853706828    
  15.200000000000       0.0000000000000    
  15.600000000000       0.0000000000000    
  16.000000000000       0.0000000000000    
  16.400000000000       0.0000000000000    
  16.800000000000       0.0000000000000    
  17.200000000000       0.0000000000000    
  17.600000000000       0.0000000000000    
  18.000000000000       0.0000000000000    
  18.400000000000       7.4101978922767    
  18.800000000000       0.0000000000000    
  19.200000000000       4.9343694298098    
  19.600000000000       9.9298199747761    
  20.000000000000       4.9343694298098    
ZONE T= "Xw:     39.8300      Yw:     28.4100      Rw:    0.100000      Zwbot:     10.6000      Zwtop:     11.2000       Specie:  1 "
 0.40000000000000       0.0000000000000    
 0.80000000000000       2.5051610473887    
  1.2000000000000       5.0069590555719    
  1.6000000000000       0.0000000000000    
  2.0000000000000       2.5048984900295    
  2.4000000000000       0.0000000000000    
  2.8000000000000       7.5256495801381    
  3.2000000000000       9.8759053289222    
  3.6000000000000       19.935393006335    
  4.0000000000000       4.9153035116973    
  4.4000000000000       9.9401250515382    
  4.8000000000000       17.460221061799    
  5.2000000000000       24.769990622998    
  5.6000000000000       24.765562369629    
  6.0000000000000       19.935612566810    
  6.4000000000000       19.957972901788    
  6.8000000000000       17.434399329309    
  7.2000000000000       22.294568237574    
  7.6000000000000       34.799215904087    
  8.0000000000000       27.312194816799    
  8.4000000000000       34.991112175838    
  8.8000000000000       29.876431119834    
  9.2000000000000       47.555863059270    
  9.6000000000000       39.976405498958    
  10.000000000000       24.877956301764    
  10.400000000000       27.442141976492    
  10.800000000000       44.929310747118    
  11.200000000000       45.034094746068    
  11.600000000000       42.598427359575    
  12.000000000000       40.079738303235    
  12.400000000000       17.470020037372    
  12.800000000000       17.421529634637    
  13.200000000000       22.427998494652    
  13.600000000000       10.013184515499    
  14.000000000000       32.451215793292    
  14.400000000000       2.5433817356800    
  14.800000000000       7.5418327741669    
  15.200000000000       15.027011840519    
  15.600000000000       7.4527494835254    
  16.000000000000       17.420741800560    
  16.400000000000       30.036611644540    
  16.800000000000       4.9923715090765    
  17.200000000000       10.026974593708    
  17.600000000000       17.616770164580    
  18.000000000000       10.034927558114    
  18.400000000000       7.5172596841245    
  18.800000000000       7.5381095815790    
  19.200000000000       7.5656138684971    
  19.600000000000       4.9760989084340    
  20.000000000000       7.5549529769705    
ZONE T= "Xw:     39.8300      Yw:     28.4100      Rw:    0.100000      Zwbot:     7.60000      Zwtop:     8.30000       Specie:  1 "
 0.40000000000000       0.0000000000000    
 0.80000000000000       0.0000000000000    
  1.2000000000000       0.0000000000000    
  1.6000000000000       5.0031649106074    
  2.0000000000000       2.5015824553037    
  2.4000000000000       2.5015824553037    
  2.8000000000000       0.0000000000000    
  3.2000000000000       7.4786556850864    
  3.6000000000000       7.4890558649515    
  4.0000000000000       7.4269221750883    
  4.4000000000000       12.506274777676    
  4.8000000000000       4.9788748723909    
  5.2000000000000       14.809818838544    
  5.6000000000000       19.932790847537    
  6.0000000000000       17.459071117030    
  6.4000000000000       7.5030219915767    
  6.8000000000000       12.580978970741    
  7.2000000000000       17.474634501796    
  7.6000000000000       7.5220510309329    
  8.0000000000000       25.013005280654    
  8.4000000000000       27.556114820765    
  8.8000000000000       49.800969080662    
  9.2000000000000       59.794261611134    
  9.6000000000000       19.872954646116    
  10.000000000000       25.144241705921    
  10.400000000000       22.343321720853    
  10.800000000000       37.273540842110    
  11.200000000000       19.970264861908    
  11.600000000000       27.482468001968    
  12.000000000000       19.926515564232    
  12.400000000000       32.432927754681    
  12.800000000000       42.406351249299    
  13.200000000000       35.042340064045    
  13.600000000000       45.097308769070    
  14.000000000000       32.539925166265    
  14.400000000000       35.008519703898    
  14.800000000000       24.895260981570    
  15.200000000000       35.116745756201    
  15.600000000000       25.112564780594    
  16.000000000000       17.457742474876    
  16.400000000000       37.669107651927    
  16.800000000000       44.990657893751    
  17.200000000000       15.130260267944    
  17.600000000000       17.456666187791    
  18.000000000000       15.075852344502    
  18.400000000000       14.923167306435    
  18.800000000000       14.974794641319    
  19.200000000000       25.098483738996    
  19.600000000000       32.574272426606    
  20.000000000000       7.5641662422874    
ZONE T= "Xw:     39.8300      Yw:     28.5100      Rw:    0.100000      Zwbot:     4.50000      Zwtop:     5.00000       Specie:  1 "
 0.40000000000000       37.628266161128    
 0.80000000000000       9.9921397466262    
  1.2000000000000       7.4943923275653    
  1.6000000000000       20.012330031332    
  2.0000000000000       17.524129474779    
  2.4000000000000       17.678300060300    
  2.8000000000000       27.426243182618    
  3.2000000000000       29.898029009180    
  3.6000000000000       30.101587946591    
  4.0000000000000       22.575124697284    
  4.4000000000000       40.127162336475    
  4.8000000000000       37.621438543940    
  5.2000000000000       47.479007894047    
  5.6000000000000       32.483890663411    
  6.0000000000000       32.459302860357    
  6.4000000000000       32.237901614758    
  6.8000000000000       52.408764197287    
  7.2000000000000       24.916715691148    
  7.6000000000000       32.554813929462    
  8.0000000000000       27.378571031815    
  8.4000000000000       44.838897366021    
  8.8000000000000       22.397478572348    
  9.2000000000000       24.927161975802    
  9.6000000000000       17.546916114733    
  10.000000000000       9.9646475262919    
  10.400000000000       27.393014733723    
  10.800000000000       24.977318605789    
  11.200000000000       5.0186754437079    
  11.600000000000       17.499590924218    
  12.000000000000       4.9895343855210    
  12.400000000000       12.465665211318    
  12.800000000000       15.055015701250    
  13.200000000000       7.5679548714626    
  13.600000000000       17.479493213360    
  14.000000000000       2.4820197417977    
  14.400000000000       2.5198051542043    
  14.800000000000       0.0000000000000    
  15.200000000000       0.0000000000000    
  15.600000000000       0.0000000000000    
  16.000000000000       0.0000000000000    
  16.400000000000       0.0000000000000    
  16.800000000000       0.0000000000000    
  17.200000000000       0.0000000000000    
  17.600000000000       0.0000000000000    
  18.000000000000       0.0000000000000    
  18.400000000000       0.0000000000000    
  18.800000000000       0.0000000000000    
  19.200000000000       0.0000000000000    
  19.600000000000       0.0000000000000    
  20.000000000000       0.0000000000000    
ZONE T= "Xw:     39.5300      Yw:     34.0100      Rw:    0.100000      Zwbot:     16.7000      Zwtop:     17.3000       Specie:  1 "
 0.40000000000000       0.0000000000000    
 0.80000000000000       0.0000000000000    
  1.2000000000000       4.9523452843218    
  1.6000000000000       2.4761726421609    
  2.0000000000000       12.541488487163    
  2.4000000000000       0.0000000000000    
  2.8000000000000       9.9604196595545    
  3.2000000000000       7.4345620145791    
  3.6000000000000       2.4818843985602    
  4.0000000000000       12.446665160109    
  4.4000000000000       32.361636867117    
  4.8000000000000       14.934041651540    
  5.2000000000000       10.024598441931    
  5.6000000000000       7.5089136397618    
  6.0000000000000       12.568466965943    
  6.4000000000000       22.571512354149    
  6.8000000000000       14.986332863768    
  7.2000000000000       30.046110111307    
  7.6000000000000       12.576626864446    
  8.0000000000000       4.9552298810017    
  8.4000000000000       22.521905244202    
  8.8000000000000       19.954231072012    
  9.2000000000000       17.398579598691    
  9.6000000000000       10.011241391017    
  10.000000000000       64.920565980038    
  10.400000000000       42.520096587028    
  10.800000000000       7.5487451614773    
  11.200000000000       29.963325699724    
  11.600000000000       22.495713661964    
  12.000000000000       19.922563135330    
  12.400000000000       32.601616514956    
  12.800000000000       7.5448604083225    
  13.200000000000       17.498316515241    
  13.600000000000       37.538417662837    
  14.000000000000       30.147542719421    
  14.400000000000       25.049715381657    
  14.800000000000       14.985482467382    
  15.200000000000       17.515312338628    
  15.600000000000       2.4764508640092    
  16.000000000000       12.508106762519    
  16.400000000000       12.493660731983    
  16.800000000000       24.934343197959    
  17.200000000000       15.000201762340    
  17.600000000000       17.557712701933    
  18.000000000000       27.418053839069    
  18.400000000000       19.943468029331    
  18.800000000000       15.030392180880    
  19.200000000000       14.936399183258    
  19.600000000000       14.982132890054    
  20.000000000000       2.4889374619353    
ZONE T= "Xw:     39.5300      Yw:     34.1100      Rw:    0.100000      Zwbot:     13.5000      Zwtop:     14.0000       Specie:  1 "
 0.40000000000000       0.0000000000000    
 0.80000000000000       0.0000000000000    
  1.2000000000000       0.0000000000000    
  1.6000000000000       7.4949491900064    
  2.0000000000000       0.0000000000000    
  2.4000000000000       0.0000000000000    
  2.8000000000000       0.0000000000000    
  3.2000000000000       0.0000000000000    
  3.6000000000000       0.0000000000000    
  4.0000000000000       2.4983163966688    
  4.4000000000000       7.5138487314995    
  4.8000000000000       14.983707602374    
  5.2000000000000       4.9868691909906    
  5.6000000000000       2.5049846101964    
  6.0000000000000       0.0000000000000    
  6.4000000000000       10.074407989498    
  6.8000000000000       7.5541045220663    
  7.2000000000000       5.0406069348637    
  7.6000000000000       10.042562477010    
  8.0000000000000       7.5104607313928    
  8.4000000000000       30.119532535984    
  8.8000000000000       14.920861147148    
  9.2000000000000       7.5391881206376    
  9.6000000000000       12.556277793253    
  10.000000000000       35.047475751966    
  10.400000000000       22.539522425867    
  10.800000000000       10.056767458034    
  11.200000000000       17.607448404411    
  11.600000000000       12.498603070487    
  12.000000000000       15.054334691197    
  12.400000000000       7.4757530029887    
  12.800000000000       15.028791594403    
  13.200000000000       32.592548600224    
  13.600000000000       19.952175705816    
  14.000000000000       22.542939046511    
  14.400000000000       25.074872484352    
  14.800000000000       20.022350767091    
  15.200000000000       19.976895778609    
  15.600000000000       24.966537943076    
  16.000000000000       10.001538114652    
  16.400000000000       27.427524048711    
  16.800000000000       22.476021420944    
  17.200000000000       25.068391187000    
  17.600000000000       12.523549524506    
  18.000000000000       17.527035631426    
  18.400000000000       14.976502400428    
  18.800000000000       14.994160346084    
  19.200000000000       12.546058223781    
  19.600000000000       30.032922917428    
  20.000000000000       12.558755506548    
ZONE T= "Xw:     39.4300      Yw:     34.0100      Rw:    0.100000      Zwbot:     10.5000      Zwtop:     11.1000       Specie:  1 "
 0.40000000000000       2.5297144009470    
 0.80000000000000       5.0416189727066    
  1.2000000000000       10.001181766299    
  1.6000000000000       2.4955291372216    
  2.0000000000000       5.0037088575748    
  2.4000000000000       17.534391792148    
  2.8000000000000       22.567221427147    
  3.2000000000000       30.038902082589    
  3.6000000000000       17.558778039509    
  4.0000000000000       42.647782969118    
  4.4000000000000       24.914296721160    
  4.8000000000000       37.432804100049    
  5.2000000000000       42.377100664029    
  5.6000000000000       32.378652610872    
  6.0000000000000       34.976134153543    
  6.4000000000000       27.471008799069    
  6.8000000000000       25.045154829189    
  7.2000000000000       45.089032974502    
  7.6000000000000       19.945470987871    
  8.0000000000000       15.047054737255    
  8.4000000000000       52.729461190321    
  8.8000000000000       27.488157337472    
  9.2000000000000       27.611437560002    
  9.6000000000000       30.029464654366    
  10.000000000000       40.042620879306    