 TITLE="TECPLOT input file: Breakthrough Curves" 
 VARIABLES="Time" "Concentrations" 
ZONE T= "Xw:     39.9300      Yw:     22.4100      Rw:    0.100000      Zwbot:     16.5000      Zwtop:     17.0000       Specie:  1 "
 0.40000000000000       0.0000000000000    
 0.80000000000000       0.0000000000000    
  1.2000000000000       0.0000000000000    
  1.6000000000000       0.0000000000000    
  2.0000000000000       0.0000000000000    
  2.4000000000000       0.0000000000000    
  2.8000000000000       0.0000000000000    
  3.2000000000000       0.0000000000000    
  3.6000000000000       0.0000000000000    
  4.0000000000000       0.0000000000000    
  4.4000000000000       0.0000000000000    
  4.8000000000000       0.0000000000000    
  5.2000000000000       0.0000000000000    
  5.6000000000000       0.0000000000000    
  6.0000000000000       0.0000000000000    
  6.4000000000000       0.0000000000000    
  6.8000000000000       0.0000000000000    
  7.2000000000000       0.0000000000000    
  7.6000000000000       0.0000000000000    
  8.0000000000000       0.0000000000000    
  8.4000000000000       0.0000000000000    
  8.8000000000000       0.0000000000000    
  9.2000000000000       0.0000000000000    
  9.6000000000000       0.0000000000000    
  10.000000000000       0.0000000000000    
  10.400000000000       0.0000000000000    
  10.800000000000       0.0000000000000    
  11.200000000000       0.0000000000000    
  11.600000000000       2.5017491981279    
  12.000000000000       0.0000000000000    
  12.400000000000       5.0034983962558    
  12.800000000000       2.5017491981279    
  13.200000000000       2.5017491981279    
  13.600000000000       0.0000000000000    
  14.000000000000       0.0000000000000    
  14.400000000000       0.0000000000000    
  14.800000000000       0.0000000000000    
  15.200000000000       2.5017491981279    
  15.600000000000       0.0000000000000    
  16.000000000000       0.0000000000000    
  16.400000000000       0.0000000000000    
  16.800000000000       0.0000000000000    
  17.200000000000       0.0000000000000    
  17.600000000000       0.0000000000000    
  18.000000000000       0.0000000000000    
  18.400000000000       0.0000000000000    
  18.800000000000       0.0000000000000    
  19.200000000000       0.0000000000000    
  19.600000000000       0.0000000000000    
  20.000000000000       0.0000000000000    
ZONE T= "Xw:     39.9300      Yw:     22.4100      Rw:    0.100000      Zwbot:     13.5000      Zwtop:     14.0000       Specie:  1 "
 0.40000000000000       0.0000000000000    
 0.80000000000000       0.0000000000000    
  1.2000000000000       0.0000000000000    
  1.6000000000000       0.0000000000000    
  2.0000000000000       0.0000000000000    
  2.4000000000000       0.0000000000000    
  2.8000000000000       0.0000000000000    
  3.2000000000000       0.0000000000000    
  3.6000000000000       0.0000000000000    
  4.0000000000000       0.0000000000000    
  4.4000000000000       0.0000000000000    
  4.8000000000000       0.0000000000000    
  5.2000000000000       0.0000000000000    
  5.6000000000000       0.0000000000000    
  6.0000000000000       0.0000000000000    
  6.4000000000000       0.0000000000000    
  6.8000000000000       0.0000000000000    
  7.2000000000000       0.0000000000000    
  7.6000000000000       0.0000000000000    
  8.0000000000000       0.0000000000000    
  8.4000000000000       0.0000000000000    
  8.8000000000000       0.0000000000000    
  9.2000000000000       0.0000000000000    
  9.6000000000000       0.0000000000000    
  10.000000000000       0.0000000000000    
  10.400000000000       0.0000000000000    
  10.800000000000       0.0000000000000    
  11.200000000000       0.0000000000000    
  11.600000000000       0.0000000000000    
  12.000000000000       0.0000000000000    
  12.400000000000       0.0000000000000    
  12.800000000000       0.0000000000000    
  13.200000000000       0.0000000000000    
  13.600000000000       0.0000000000000    
  14.000000000000       0.0000000000000    
  14.400000000000       0.0000000000000    
  14.800000000000       2.4991911064805    
  15.200000000000       0.0000000000000    
  15.600000000000       7.5364019359467    
  16.000000000000       2.5248558097464    
  16.400000000000       2.4991911064805    
  16.800000000000       0.0000000000000    
  17.200000000000       2.5248558097464    
  17.600000000000       12.445952372296    
  18.000000000000       12.442129238685    
  18.400000000000       5.0403189616988    
  18.800000000000       7.5203333199377    
  19.200000000000       2.5195182109532    
  19.600000000000       15.031571649876    
  20.000000000000       10.023020035929    
ZONE T= "Xw:     39.9300      Yw:     22.3100      Rw:    0.100000      Zwbot:     10.5000      Zwtop:     11.0000       Specie:  1 "
 0.40000000000000       0.0000000000000    
 0.80000000000000       0.0000000000000    
  1.2000000000000       0.0000000000000    
  1.6000000000000       0.0000000000000    
  2.0000000000000       0.0000000000000    
  2.4000000000000       0.0000000000000    
  2.8000000000000       0.0000000000000    
  3.2000000000000       0.0000000000000    
  3.6000000000000       0.0000000000000    
  4.0000000000000       0.0000000000000    
  4.4000000000000       7.4464311209344    
  4.8000000000000       2.4775143592349    
  5.2000000000000       4.9806477987339    
  5.6000000000000       5.0134461898749    
  6.0000000000000       7.5390556257039    
  6.4000000000000       12.534433569345    
  6.8000000000000       9.9749668593430    
  7.2000000000000       22.477475011445    
  7.6000000000000       15.034620029609    
  8.0000000000000       0.0000000000000    
  8.4000000000000       7.4952932789306    
  8.8000000000000       7.5518261902861    
  9.2000000000000       27.530316762708    
  9.6000000000000       4.9758325889775    
  10.000000000000       14.924548676670    
  10.400000000000       24.966105709515    
  10.800000000000       35.024938239760    
  11.200000000000       27.534851087859    
  11.600000000000       35.066588856835    
  12.000000000000       30.001911701622    
  12.400000000000       47.593566610938    
  12.800000000000       14.998908121654    
  13.200000000000       22.584847768621    
  13.600000000000       22.555191461194    
  14.000000000000       17.528280620797    
  14.400000000000       17.560716785769    
  14.800000000000       0.0000000000000    
  15.200000000000       15.117784301508    
  15.600000000000       2.5131103018324    
  16.000000000000       7.5665575474408    
  16.400000000000       7.5142812408419    
  16.800000000000       9.9997125414053    
  17.200000000000       10.051620711095    
  17.600000000000       4.9705540398237    
  18.000000000000       2.5065753463500    
  18.400000000000       2.4852770199118    
  18.800000000000       2.5065753463500    
  19.200000000000       0.0000000000000    
  19.600000000000       0.0000000000000    
  20.000000000000       0.0000000000000    
ZONE T= "Xw:     40.0300      Yw:     22.4100      Rw:    0.100000      Zwbot:     7.60000      Zwtop:     8.10000       Specie:  1 "
 0.40000000000000       0.0000000000000    
 0.80000000000000       0.0000000000000    
  1.2000000000000       0.0000000000000    
  1.6000000000000       0.0000000000000    
  2.0000000000000       0.0000000000000    
  2.4000000000000       0.0000000000000    
  2.8000000000000       0.0000000000000    
  3.2000000000000       0.0000000000000    
  3.6000000000000       0.0000000000000    
  4.0000000000000       0.0000000000000    
  4.4000000000000       0.0000000000000    
  4.8000000000000       0.0000000000000    
  5.2000000000000       2.4872106975265    
  5.6000000000000       19.985752715763    
  6.0000000000000       4.9731278261382    
  6.4000000000000       12.468887014732    
  6.8000000000000       17.502712964214    
  7.2000000000000       25.036690481330    
  7.6000000000000       12.489662248335    
  8.0000000000000       35.010385636852    
  8.4000000000000       27.553141877457    
  8.8000000000000       30.015340525770    
  9.2000000000000       39.892915974416    
  9.6000000000000       34.953788229832    
  10.000000000000       30.061388943688    
  10.400000000000       42.634638927234    
  10.800000000000       32.532989298771    
  11.200000000000       20.060623696157    
  11.600000000000       35.100263891403    
  12.000000000000       42.613521134129    
  12.400000000000       32.595574284337    
  12.800000000000       35.121222523255    
  13.200000000000       15.062052118602    
  13.600000000000       35.044109347915    
  14.000000000000       45.222928752890    
  14.400000000000       22.492522191064    
  14.800000000000       37.441413476379    
  15.200000000000       20.037048922410    
  15.600000000000       24.978840413264    
  16.000000000000       30.155695244011    
  16.400000000000       25.083664037028    
  16.800000000000       25.107941788367    
  17.200000000000       42.529083684722    
  17.600000000000       15.060356013187    
  18.000000000000       20.131625376069    
  18.400000000000       12.542949202187    
  18.800000000000       7.5090930277250    
  19.200000000000       9.9735009750758    
  19.600000000000       24.934265551716    
  20.000000000000       19.990962253034    
ZONE T= "Xw:     39.9300      Yw:     22.4100      Rw:    0.100000      Zwbot:     4.50000      Zwtop:     5.00000       Specie:  1 "
 0.40000000000000       0.0000000000000    
 0.80000000000000       0.0000000000000    
  1.2000000000000       0.0000000000000    
  1.6000000000000       0.0000000000000    
  2.0000000000000       0.0000000000000    
  2.4000000000000       0.0000000000000    
  2.8000000000000       0.0000000000000    
  3.2000000000000       0.0000000000000    
  3.6000000000000       5.0004716581040    
  4.0000000000000       0.0000000000000    
  4.4000000000000       5.0132825778531    
  4.8000000000000       5.0174306730280    
  5.2000000000000       0.0000000000000    
  5.6000000000000       7.4758467561252    
  6.0000000000000       22.384255511811    
  6.4000000000000       24.925671832185    
  6.8000000000000       32.277890294494    
  7.2000000000000       9.9769615204557    
  7.6000000000000       39.969117509268    
  8.0000000000000       29.969225575682    
  8.4000000000000       44.987304005991    
  8.8000000000000       25.058608931950    
  9.2000000000000       55.138927791630    
  9.6000000000000       37.556179777502    
  10.000000000000       40.015662905181    
  10.400000000000       25.062649991032    
  10.800000000000       37.581467067881    
  11.200000000000       17.497672518135    
  11.600000000000       40.216280128880    
  12.000000000000       22.588748218698    
  12.400000000000       45.120213369988    
  12.800000000000       25.014453913508    
  13.200000000000       4.9745167186466    
  13.600000000000       4.9856435825939    
  14.000000000000       4.9622136575159    
  14.400000000000       7.4777122456201    
  14.800000000000       9.9851201648301    
  15.200000000000       2.4788134803386    
  15.600000000000       2.4830283904654    
  16.000000000000       9.9321135618617    
  16.400000000000       2.4830283904654    
  16.800000000000       29.952596395989    
  17.200000000000       19.989005171359    
  17.600000000000       9.9550841462180    
  18.000000000000       4.9762348578746    
  18.400000000000       17.391444261338    
  18.800000000000       4.9593163637258    
  19.200000000000       0.0000000000000    
  19.600000000000       5.0163174872744    
  20.000000000000       5.0078317305100    
ZONE T= "Xw:     39.8300      Yw:     28.4100      Rw:    0.100000      Zwbot:     16.5000      Zwtop:     17.0000       Specie:  1 "
 0.40000000000000       0.0000000000000    
 0.80000000000000       0.0000000000000    
  1.2000000000000       0.0000000000000    
  1.6000000000000       0.0000000000000    
  2.0000000000000       0.0000000000000    
  2.4000000000000       0.0000000000000    
  2.8000000000000       0.0000000000000    
  3.2000000000000       0.0000000000000    
  3.6000000000000       0.0000000000000    
  4.0000000000000       2.5056298494163    
  4.4000000000000       5.0137822132985    
  4.8000000000000       5.0021582065511    
  5.2000000000000       2.5081523638822    
  5.6000000000000       0.0000000000000    
  6.0000000000000       5.0021582065511    
  6.4000000000000       7.5103105704333    
  6.8000000000000       7.5244570916467    
  7.2000000000000       12.388441262838    
  7.6000000000000       2.5384521538285    
  8.0000000000000       10.042489268438    
  8.4000000000000       7.5373954813056    
  8.8000000000000       2.4834971739673    
  9.2000000000000       22.603243464693    
  9.6000000000000       17.364282261733    
  10.000000000000       5.0509173142637    
  10.400000000000       0.0000000000000    
  10.800000000000       5.0769043076570    
  11.200000000000       2.4668307445251    
  11.600000000000       2.5254871485866    
  12.000000000000       12.499792885329    
  12.400000000000       25.088575774761    
  12.800000000000       24.941369946246    
  13.200000000000       25.038049483058    
  13.600000000000       14.976756486305    
  14.000000000000       15.007234017851    
  14.400000000000       29.950421257304    
  14.800000000000       9.9956038987688    
  15.200000000000       12.424424361215    
  15.600000000000       17.521585974410    
  16.000000000000       7.5476181831229    
  16.400000000000       24.971617654475    
  16.800000000000       14.933345392853    
  17.200000000000       17.406807207262    
  17.600000000000       37.375572480302    
  18.000000000000       7.5315476401739    
  18.400000000000       2.5177381956721    
  18.800000000000       12.476378449731    
  19.200000000000       19.988387716046    
  19.600000000000       4.9492102849600    
  20.000000000000       4.9607028730391    
ZONE T= "Xw:     39.9300      Yw:     28.4100      Rw:    0.100000      Zwbot:     13.5000      Zwtop:     14.0000       Specie:  1 "
 0.40000000000000       0.0000000000000    
 0.80000000000000       0.0000000000000    
  1.2000000000000       0.0000000000000    
  1.6000000000000       0.0000000000000    
  2.0000000000000       0.0000000000000    
  2.4000000000000       0.0000000000000    
  2.8000000000000       0.0000000000000    
  3.2000000000000       0.0000000000000    
  3.6000000000000       0.0000000000000    
  4.0000000000000       0.0000000000000    
  4.4000000000000       0.0000000000000    
  4.8000000000000       0.0000000000000    
  5.2000000000000       0.0000000000000    
  5.6000000000000       0.0000000000000    
  6.0000000000000       0.0000000000000    
  6.4000000000000       0.0000000000000    
  6.8000000000000       2.5018293644276    
  7.2000000000000       7.5054880932827    
  7.6000000000000       5.0036587288551    
  8.0000000000000       5.0036587288551    
  8.4000000000000       0.0000000000000    
  8.8000000000000       0.0000000000000    
  9.2000000000000       0.0000000000000    
  9.6000000000000       0.0000000000000    
  10.000000000000       0.0000000000000    
  10.400000000000       2.5018293644276    
  10.800000000000       0.0000000000000    
  11.200000000000       2.5065529915616    
  11.600000000000       5.0083823559892    
  12.000000000000       7.5054880932827    
  12.400000000000       0.0000000000000    
  12.800000000000       0.0000000000000    
  13.200000000000       5.0131059831233    
  13.600000000000       7.5390538916501    
  14.000000000000       17.607878551657    
  14.400000000000       2.5150994785254    
  14.800000000000       2.5065529915616    
  15.200000000000       15.056410923297    
  15.600000000000       2.5150994785254    
  16.000000000000       0.0000000000000    
  16.400000000000       5.0210366752371    
  16.800000000000       5.0066188059935    
  17.200000000000       0.0000000000000    
  17.600000000000       5.0147053554439    
  18.000000000000       0.0000000000000    
  18.400000000000       12.574756755510    
  18.800000000000       14.962716919862    
  19.200000000000       0.0000000000000    
  19.600000000000       5.0413377678088    
  20.000000000000       5.0413377678088    
ZONE T= "Xw:     39.8300      Yw:     28.4100      Rw:    0.100000      Zwbot:     10.6000      Zwtop:     11.2000       Specie:  1 "
 0.40000000000000       0.0000000000000    
 0.80000000000000       0.0000000000000    
  1.2000000000000       0.0000000000000    
  1.6000000000000       0.0000000000000    
  2.0000000000000       0.0000000000000    
  2.4000000000000       2.5150994785254    
  2.8000000000000       12.527086590391    
  3.2000000000000       7.5187582073805    
  3.6000000000000       7.4646125971406    
  4.0000000000000       12.408403962585    
  4.4000000000000       17.500567769044    
  4.8000000000000       22.499157555881    
  5.2000000000000       24.917145076095    
  5.6000000000000       19.922107324276    
  6.0000000000000       12.395680716486    
  6.4000000000000       24.833031594726    
  6.8000000000000       29.992744384944    
  7.2000000000000       19.906398854527    
  7.6000000000000       29.941872977459    
  8.0000000000000       12.430726074203    
  8.4000000000000       30.095941935864    
  8.8000000000000       27.501733303682    
  9.2000000000000       7.4319517905948    
  9.6000000000000       35.100588733817    
  10.000000000000       40.059889233531    
  10.400000000000       50.102875052696    
  10.800000000000       12.624275620979    
  11.200000000000       47.012648501729    
  11.600000000000       14.885540360845    
  12.000000000000       29.780120585953    
  12.400000000000       27.285633648713    
  12.800000000000       40.022068629189    
  13.200000000000       52.310345904352    
  13.600000000000       30.143365411859    
  14.000000000000       32.621757883830    
  14.400000000000       37.542424341405    
  14.800000000000       22.515938338523    
  15.200000000000       20.025920444121    
  15.600000000000       17.647920763723    
  16.000000000000       32.649921222643    
  16.400000000000       17.529741695241    
  16.800000000000       4.9616127984955    
  17.200000000000       7.4615334533549    
  17.600000000000       7.5023147949180    
  18.000000000000       4.9881735349085    
  18.400000000000       12.443840754902    
  18.800000000000       4.9881735349085    
  19.200000000000       10.029533234556    
  19.600000000000       7.5428491215051    
  20.000000000000       5.0413596996477    
ZONE T= "Xw:     39.8300      Yw:     28.4100      Rw:    0.100000      Zwbot:     7.60000      Zwtop:     8.30000       Specie:  1 "
 0.40000000000000       0.0000000000000    
 0.80000000000000       0.0000000000000    
  1.2000000000000       2.4890673161622    
  1.6000000000000       4.9781346323243    
  2.0000000000000       5.0191619865882    
  2.4000000000000       0.0000000000000    
  2.8000000000000       5.0342784476685    
  3.2000000000000       5.0472338942603    
  3.6000000000000       9.9283507769106    
  4.0000000000000       12.407343503810    
  4.4000000000000       9.9319653843253    
  4.8000000000000       9.9566124627942    
  5.2000000000000       22.487503155745    
  5.6000000000000       4.9358334335912    
  6.0000000000000       10.065275489961    
  6.4000000000000       35.078172993575    
  6.8000000000000       29.917475966909    
  7.2000000000000       22.481052905160    
  7.6000000000000       37.341326859387    
  8.0000000000000       22.508533270591    
  8.4000000000000       29.963460172665    
  8.8000000000000       37.688438581036    
  9.2000000000000       27.738202079016    
  9.6000000000000       47.338756558594    
  10.000000000000       29.832329947003    
  10.400000000000       37.532447455645    
  10.800000000000       37.148884167601    
  11.200000000000       22.474350678379    
  11.600000000000       22.614693680120    
  12.000000000000       22.458509287371    
  12.400000000000       22.604490220746    
  12.800000000000       32.562486617624    
  13.200000000000       39.803901941986    
  13.600000000000       47.354473291145    
  14.000000000000       35.003520350767    
  14.400000000000       27.316331805598    
  14.800000000000       12.488676618664    
  15.200000000000       12.429661150365    
  15.600000000000       29.844221849336    
  16.000000000000       32.603400285136    
  16.400000000000       17.464105067963    
  16.800000000000       17.520093228267    
  17.200000000000       14.949284926601    
  17.600000000000       17.374415593151    
  18.000000000000       17.512123435346    
  18.400000000000       22.528978713734    
  18.800000000000       22.533613486288    
  19.200000000000       30.051436332225    
  19.600000000000       25.038946704838    
  20.000000000000       17.562571388234    
ZONE T= "Xw:     39.8300      Yw:     28.5100      Rw:    0.100000      Zwbot:     4.50000      Zwtop:     5.00000       Specie:  1 "
 0.40000000000000       44.980760101523    
 0.80000000000000       9.9960261317178    
  1.2000000000000       10.035723978811    
  1.6000000000000       20.055586786922    
  2.0000000000000       10.061294698614    
  2.4000000000000       2.4937753989603    
  2.8000000000000       25.036206400322    
  3.2000000000000       12.507893698946    
  3.6000000000000       37.642746553016    
  4.0000000000000       37.471719020579    
  4.4000000000000       32.471308650526    
  4.8000000000000       39.961882644974    
  5.2000000000000       17.541740884383    
  5.6000000000000       70.156582042407    
  6.0000000000000       30.054994965656    
  6.4000000000000       47.571283760441    
  6.8000000000000       29.995226705540    
  7.2000000000000       32.480301651526    
  7.6000000000000       19.953430624503    
  8.0000000000000       24.827685958246    
  8.4000000000000       17.545551538607    
  8.8000000000000       17.338117349846    
  9.2000000000000       27.526249090581    
  9.6000000000000       32.474485856727    
  10.000000000000       27.351264379141    
  10.400000000000       25.042586207558    
  10.800000000000       17.530873474691    
  11.200000000000       10.012911353178    
  11.600000000000       7.5364763612433    
  12.000000000000       2.4620943520957    
  12.400000000000       7.5246226360326    
  12.800000000000       2.5143229242846    
  13.200000000000       5.0008242394328    
  13.600000000000       7.4773583534636    
  14.000000000000       5.0054418254192    
  14.400000000000       7.4617991616912    
  14.800000000000       7.4870231506762    
  15.200000000000       4.9375589210390    
  15.600000000000       2.4671085264653    
  16.000000000000       0.0000000000000    
  16.400000000000       0.0000000000000    
  16.800000000000       0.0000000000000    
  17.200000000000       0.0000000000000    
  17.600000000000       0.0000000000000    
  18.000000000000       0.0000000000000    
  18.400000000000       0.0000000000000    
  18.800000000000       0.0000000000000    
  19.200000000000       0.0000000000000    
  19.600000000000       0.0000000000000    
  20.000000000000       0.0000000000000    
ZONE T= "Xw:     39.5300      Yw:     34.0100      Rw:    0.100000      Zwbot:     16.7000      Zwtop:     17.3000       Specie:  1 "
 0.40000000000000       0.0000000000000    
 0.80000000000000       7.5214350758067    
  1.2000000000000       5.0194682936461    
  1.6000000000000       5.0039335643211    
  2.0000000000000       7.5488991344588    
  2.4000000000000       5.0415113351267    
  2.8000000000000       20.139936922288    
  3.2000000000000       10.034474401768    
  3.6000000000000       17.604261823118    
  4.0000000000000       0.0000000000000    
  4.4000000000000       4.9788119770799    
  4.8000000000000       15.128996943882    
  5.2000000000000       10.085043501627    
  5.6000000000000       32.503371955023    
  6.0000000000000       17.406120223793    
  6.4000000000000       17.460166769443    
  6.8000000000000       12.512047665712    
  7.2000000000000       14.985247316437    
  7.6000000000000       27.575222751784    
  8.0000000000000       17.500188802666    
  8.4000000000000       24.953496782747    
  8.8000000000000       12.518309657335    
  9.2000000000000       22.527286794808    
  9.6000000000000       29.943100916992    
  10.000000000000       32.391914677227    
  10.400000000000       22.346388609019    
  10.800000000000       17.403718097099    
  11.200000000000       24.924647804778    
  11.600000000000       37.533666243474    
  12.000000000000       27.480898208156    
  12.400000000000       30.010478729481    
  12.800000000000       20.000819161578    
  13.200000000000       12.434694362345    
  13.600000000000       12.573529803469    
  14.000000000000       10.041069446275    
  14.400000000000       7.5845948472068    
  14.800000000000       2.4870130242277    
  15.200000000000       2.4870130242277    
  15.600000000000       15.052910158885    
  16.000000000000       17.362819733471    
  16.400000000000       17.442680487140    
  16.800000000000       9.9454920495819    
  17.200000000000       2.4804090909091    
  17.600000000000       9.9653408204373    
  18.000000000000       5.0219921033229    
  18.400000000000       2.4763771299790    
  18.800000000000       4.9928500653130    
  19.200000000000       7.5599134754272    
  19.600000000000       20.050643380579    
  20.000000000000       10.031004835459    
ZONE T= "Xw:     39.5300      Yw:     34.1100      Rw:    0.100000      Zwbot:     13.5000      Zwtop:     14.0000       Specie:  1 "
 0.40000000000000       0.0000000000000    
 0.80000000000000       0.0000000000000    
  1.2000000000000       0.0000000000000    
  1.6000000000000       0.0000000000000    
  2.0000000000000       0.0000000000000    
  2.4000000000000       0.0000000000000    
  2.8000000000000       0.0000000000000    
  3.2000000000000       0.0000000000000    
  3.6000000000000       0.0000000000000    
  4.0000000000000       5.0414495444870    
  4.4000000000000       2.5207247722435    
  4.8000000000000       0.0000000000000    
  5.2000000000000       2.4736327808328    
  5.6000000000000       7.4523687545629    
  6.0000000000000       4.9472655616656    
  6.4000000000000       7.4679903339091    
  6.8000000000000       2.5257472663944    
  7.2000000000000       10.017806374344    
  7.6000000000000       12.493810533436    
  8.0000000000000       9.9906896482862    
  8.4000000000000       14.877645998714    
  8.8000000000000       12.422387360767    
  9.2000000000000       12.432316331669    
  9.6000000000000       24.976258454025    
  10.000000000000       5.0308504592917    
  10.400000000000       7.5016261730469    
  10.800000000000       14.931042779880    
  11.200000000000       22.556627969978    
  11.600000000000       2.4787540922783    
  12.000000000000       7.4670110710404    
  12.400000000000       9.9351047045880    
  12.800000000000       17.407846217661    
  13.200000000000       7.5391549770561    
  13.600000000000       19.874342551072    
  14.000000000000       14.994223540974    
  14.400000000000       19.918901651726    
  14.800000000000       9.9851458657296    
  15.200000000000       7.5399627061362    
  15.600000000000       20.014225450049    
  16.000000000000       17.429900940506    
  16.400000000000       24.997666958491    
  16.800000000000       20.029121322908    
  17.200000000000       7.4932589282950    
  17.600000000000       12.499312187000    
  18.000000000000       22.551182633583    
  18.400000000000       22.397933102470    
  18.800000000000       27.508484927145    
  19.200000000000       32.467674315441    
  19.600000000000       15.003507881695    
  20.000000000000       5.0022960727075    
ZONE T= "Xw:     39.4300      Yw:     34.0100      Rw:    0.100000      Zwbot:     10.5000      Zwtop:     11.1000       Specie:  1 "
 0.40000000000000       5.0353440468610    
 0.80000000000000       2.5257472663944    
  1.2000000000000       12.490727164899    
  1.6000000000000       9.9555295019007    
  2.0000000000000       42.443961320920    
  2.4000000000000       22.373013449964    
  2.8000000000000       27.552778912265    
  3.2000000000000       25.022289509436    
  3.6000000000000       10.053741629641    
  4.0000000000000       42.358271349408    
  4.4000000000000       24.911874522673    
  4.8000000000000       12.436111050322    
  5.2000000000000       17.415857068450    
  5.6000000000000       17.527023735904    
  6.0000000000000       25.063905138649    
  6.4000000000000       22.492393887219    
  6.8000000000000       27.540353775673    
  7.2000000000000       29.987430787421    
  7.6000000000000       32.390110601726    
  8.0000000000000       25.040458167417    
  8.4000000000000       32.494722434478    
  8.8000000000000       22.446630867767    
  9.2000000000000       29.961921145163    
  9.6000000000000       32.506826674262    
  10.000000000000       22.403936513353    