 TITLE="TECPLOT input file: Breakthrough Curves" 
 VARIABLES="Time" "Concentrations" 
ZONE T= "Xw:     39.9300      Yw:     22.4100      Rw:    0.100000      Zwbot:     16.5000      Zwtop:     17.0000       Specie:  1 "
 0.40000000000000       0.0000000000000    
 0.80000000000000       0.0000000000000    
  1.2000000000000       0.0000000000000    
  1.6000000000000       0.0000000000000    
  2.0000000000000       0.0000000000000    
  2.4000000000000       0.0000000000000    
  2.8000000000000       0.0000000000000    
  3.2000000000000       0.0000000000000    
  3.6000000000000       0.0000000000000    
  4.0000000000000       0.0000000000000    
  4.4000000000000       0.0000000000000    
  4.8000000000000       0.0000000000000    
  5.2000000000000       0.0000000000000    
  5.6000000000000       0.0000000000000    
  6.0000000000000       0.0000000000000    
  6.4000000000000       0.0000000000000    
  6.8000000000000       0.0000000000000    
  7.2000000000000       0.0000000000000    
  7.6000000000000       0.0000000000000    
  8.0000000000000       0.0000000000000    
  8.4000000000000       0.0000000000000    
  8.8000000000000       0.0000000000000    
  9.2000000000000       0.0000000000000    
  9.6000000000000       0.0000000000000    
  10.000000000000       0.0000000000000    
  10.400000000000       0.0000000000000    
  10.800000000000       0.0000000000000    
  11.200000000000       0.0000000000000    
  11.600000000000       0.0000000000000    
  12.000000000000       0.0000000000000    
  12.400000000000       0.0000000000000    
  12.800000000000       0.0000000000000    
  13.200000000000       0.0000000000000    
  13.600000000000       0.0000000000000    
  14.000000000000       0.0000000000000    
  14.400000000000       5.0373238414343    
  14.800000000000       2.5186619207172    
  15.200000000000       0.0000000000000    
  15.600000000000       2.4946496246824    
  16.000000000000       4.9892992493649    
  16.400000000000       0.0000000000000    
  16.800000000000       2.5186619207172    
  17.200000000000       0.0000000000000    
  17.600000000000       0.0000000000000    
  18.000000000000       0.0000000000000    
  18.400000000000       0.0000000000000    
  18.800000000000       0.0000000000000    
  19.200000000000       2.4786387695429    
  19.600000000000       2.4786387695429    
  20.000000000000       2.4946496246824    
ZONE T= "Xw:     39.9300      Yw:     22.4100      Rw:    0.100000      Zwbot:     13.5000      Zwtop:     14.0000       Specie:  1 "
 0.40000000000000       0.0000000000000    
 0.80000000000000       0.0000000000000    
  1.2000000000000       0.0000000000000    
  1.6000000000000       0.0000000000000    
  2.0000000000000       0.0000000000000    
  2.4000000000000       0.0000000000000    
  2.8000000000000       0.0000000000000    
  3.2000000000000       0.0000000000000    
  3.6000000000000       0.0000000000000    
  4.0000000000000       0.0000000000000    
  4.4000000000000       0.0000000000000    
  4.8000000000000       0.0000000000000    
  5.2000000000000       0.0000000000000    
  5.6000000000000       0.0000000000000    
  6.0000000000000       0.0000000000000    
  6.4000000000000       0.0000000000000    
  6.8000000000000       0.0000000000000    
  7.2000000000000       0.0000000000000    
  7.6000000000000       0.0000000000000    
  8.0000000000000       0.0000000000000    
  8.4000000000000       0.0000000000000    
  8.8000000000000       0.0000000000000    
  9.2000000000000       0.0000000000000    
  9.6000000000000       0.0000000000000    
  10.000000000000       0.0000000000000    
  10.400000000000       0.0000000000000    
  10.800000000000       0.0000000000000    
  11.200000000000       0.0000000000000    
  11.600000000000       0.0000000000000    
  12.000000000000       0.0000000000000    
  12.400000000000       5.0089804875996    
  12.800000000000       2.5044902437998    
  13.200000000000       0.0000000000000    
  13.600000000000       2.5044902437998    
  14.000000000000       2.5105552521636    
  14.400000000000       0.0000000000000    
  14.800000000000       2.5105552521636    
  15.200000000000       2.4949111875401    
  15.600000000000       0.0000000000000    
  16.000000000000       7.4502103258299    
  16.400000000000       0.0000000000000    
  16.800000000000       0.0000000000000    
  17.200000000000       0.0000000000000    
  17.600000000000       7.4405621246079    
  18.000000000000       0.0000000000000    
  18.400000000000       2.4852629863182    
  18.800000000000       2.5007617454855    
  19.200000000000       7.5022852364565    
  19.600000000000       5.0015234909710    
  20.000000000000       0.0000000000000    
ZONE T= "Xw:     39.9300      Yw:     22.3100      Rw:    0.100000      Zwbot:     10.5000      Zwtop:     11.0000       Specie:  1 "
 0.40000000000000       0.0000000000000    
 0.80000000000000       0.0000000000000    
  1.2000000000000       0.0000000000000    
  1.6000000000000       0.0000000000000    
  2.0000000000000       0.0000000000000    
  2.4000000000000       0.0000000000000    
  2.8000000000000       0.0000000000000    
  3.2000000000000       0.0000000000000    
  3.6000000000000       0.0000000000000    
  4.0000000000000       0.0000000000000    
  4.4000000000000       0.0000000000000    
  4.8000000000000       2.5059620848487    
  5.2000000000000       0.0000000000000    
  5.6000000000000       2.5059620848487    
  6.0000000000000       7.4315376442448    
  6.4000000000000       7.4743569694280    
  6.8000000000000       0.0000000000000    
  7.2000000000000       7.5478499307334    
  7.6000000000000       24.966063392273    
  8.0000000000000       9.9848441508166    
  8.4000000000000       25.093661038171    
  8.8000000000000       17.606117030788    
  9.2000000000000       27.634738729402    
  9.6000000000000       15.057050787639    
  10.000000000000       12.470116096693    
  10.400000000000       17.538858840702    
  10.800000000000       42.518413016226    
  11.200000000000       14.971689658556    
  11.600000000000       27.402481081124    
  12.000000000000       39.956609142497    
  12.400000000000       32.431867298299    
  12.800000000000       35.084551516204    
  13.200000000000       15.005513896358    
  13.600000000000       14.958215960469    
  14.000000000000       17.514297674635    
  14.400000000000       22.485711696786    
  14.800000000000       17.566280786429    
  15.200000000000       27.472929534025    
  15.600000000000       20.040282625044    
  16.000000000000       22.464965861140    
  16.400000000000       24.989280411248    
  16.800000000000       9.9882957344431    
  17.200000000000       12.503723910823    
  17.600000000000       4.9824606467502    
  18.000000000000       0.0000000000000    
  18.400000000000       2.4926496484774    
  18.800000000000       2.4926496484774    
  19.200000000000       0.0000000000000    
  19.600000000000       2.4858391657349    
  20.000000000000       0.0000000000000    
ZONE T= "Xw:     40.0300      Yw:     22.4100      Rw:    0.100000      Zwbot:     7.60000      Zwtop:     8.10000       Specie:  1 "
 0.40000000000000       0.0000000000000    
 0.80000000000000       0.0000000000000    
  1.2000000000000       0.0000000000000    
  1.6000000000000       0.0000000000000    
  2.0000000000000       0.0000000000000    
  2.4000000000000       0.0000000000000    
  2.8000000000000       0.0000000000000    
  3.2000000000000       0.0000000000000    
  3.6000000000000       0.0000000000000    
  4.0000000000000       0.0000000000000    
  4.4000000000000       0.0000000000000    
  4.8000000000000       0.0000000000000    
  5.2000000000000       4.9588589206777    
  5.6000000000000       4.9588589206777    
  6.0000000000000       9.9465569660136    
  6.4000000000000       17.366683714933    
  6.8000000000000       17.478641347172    
  7.2000000000000       17.444571149224    
  7.6000000000000       24.915208096783    
  8.0000000000000       19.946802896709    
  8.4000000000000       25.000684191555    
  8.8000000000000       22.520889810517    
  9.2000000000000       29.950476198915    
  9.6000000000000       17.482075624504    
  10.000000000000       27.573925689566    
  10.400000000000       34.953162298847    
  10.800000000000       67.309613325791    
  11.200000000000       47.554321536916    
  11.600000000000       55.014147079860    
  12.000000000000       30.121805961891    
  12.400000000000       52.690625476042    
  12.800000000000       52.590549947954    
  13.200000000000       44.944892337980    
  13.600000000000       40.036731607083    
  14.000000000000       37.544538550488    
  14.400000000000       20.018760801386    
  14.800000000000       22.483607367418    
  15.200000000000       42.549072634052    
  15.600000000000       25.012499236964    
  16.000000000000       42.462024089265    
  16.400000000000       32.517128477603    
  16.800000000000       9.9841408370947    
  17.200000000000       7.4537857395659    
  17.600000000000       0.0000000000000    
  18.000000000000       9.9947152091289    
  18.400000000000       10.014801492135    
  18.800000000000       14.982483634883    
  19.200000000000       7.5110078272053    
  19.600000000000       7.5383702069979    
  20.000000000000       2.5068544021226    
ZONE T= "Xw:     39.9300      Yw:     22.4100      Rw:    0.100000      Zwbot:     4.50000      Zwtop:     5.00000       Specie:  1 "
 0.40000000000000       0.0000000000000    
 0.80000000000000       0.0000000000000    
  1.2000000000000       0.0000000000000    
  1.6000000000000       0.0000000000000    
  2.0000000000000       0.0000000000000    
  2.4000000000000       0.0000000000000    
  2.8000000000000       7.5258637274395    
  3.2000000000000       5.0172424849597    
  3.6000000000000       2.5086212424798    
  4.0000000000000       2.4792912215574    
  4.4000000000000       12.524017828285    
  4.8000000000000       9.9879783335977    
  5.2000000000000       4.9928722756787    
  5.6000000000000       19.954726257494    
  6.0000000000000       25.105227066036    
  6.4000000000000       29.951881485507    
  6.8000000000000       30.019976756659    
  7.2000000000000       34.967953295327    
  7.6000000000000       30.048500876248    
  8.0000000000000       27.572717753133    
  8.4000000000000       42.481344063623    
  8.8000000000000       27.349452398325    
  9.2000000000000       34.803004702797    
  9.6000000000000       17.373654293422    
  10.000000000000       19.962693829733    
  10.400000000000       42.414036069226    
  10.800000000000       34.956366366377    
  11.200000000000       32.537217980170    
  11.600000000000       27.557830014039    
  12.000000000000       34.864264281286    
  12.400000000000       44.902824926955    
  12.800000000000       17.398298227411    
  13.200000000000       34.979221122191    
  13.600000000000       30.046273290158    
  14.000000000000       14.957703078997    
  14.400000000000       22.508183917582    
  14.800000000000       37.461607751613    
  15.200000000000       22.450344598884    
  15.600000000000       2.4872622585561    
  16.000000000000       12.415113173305    
  16.400000000000       7.4500182379893    
  16.800000000000       0.0000000000000    
  17.200000000000       9.9344700083329    
  17.600000000000       2.4952757270328    
  18.000000000000       15.024907940336    
  18.400000000000       0.0000000000000    
  18.800000000000       2.5181713606871    
  19.200000000000       2.5181713606871    
  19.600000000000       2.5181713606871    
  20.000000000000       0.0000000000000    
ZONE T= "Xw:     39.8300      Yw:     28.4100      Rw:    0.100000      Zwbot:     16.5000      Zwtop:     17.0000       Specie:  1 "
 0.40000000000000       0.0000000000000    
 0.80000000000000       0.0000000000000    
  1.2000000000000       0.0000000000000    
  1.6000000000000       0.0000000000000    
  2.0000000000000       0.0000000000000    
  2.4000000000000       0.0000000000000    
  2.8000000000000       0.0000000000000    
  3.2000000000000       0.0000000000000    
  3.6000000000000       0.0000000000000    
  4.0000000000000       0.0000000000000    
  4.4000000000000       0.0000000000000    
  4.8000000000000       0.0000000000000    
  5.2000000000000       0.0000000000000    
  5.6000000000000       2.5423079255340    
  6.0000000000000       5.0112153223753    
  6.4000000000000       10.009424436694    
  6.8000000000000       2.4940246087098    
  7.2000000000000       12.624121834565    
  7.6000000000000       0.0000000000000    
  8.0000000000000       2.5054669872665    
  8.4000000000000       7.4785693786582    
  8.8000000000000       0.0000000000000    
  9.2000000000000       19.968612895554    
  9.6000000000000       2.5429132799842    
  10.000000000000       2.5054669872665    
  10.400000000000       17.404779808126    
  10.800000000000       17.532654891159    
  11.200000000000       4.9887291368526    
  11.600000000000       20.024026146578    
  12.000000000000       22.612978857559    
  12.400000000000       12.533057527035    
  12.800000000000       14.990547531304    
  13.200000000000       14.986582134499    
  13.600000000000       17.692525495371    
  14.000000000000       22.387690379679    
  14.400000000000       27.592288867139    
  14.800000000000       15.029627908450    
  15.200000000000       19.929690370978    
  15.600000000000       24.995462236821    
  16.000000000000       27.589248423699    
  16.400000000000       10.000434217565    
  16.800000000000       10.139953516819    
  17.200000000000       17.455161432805    
  17.600000000000       12.460398087906    
  18.000000000000       17.414361969224    
  18.400000000000       24.778058096724    
  18.800000000000       17.499069995293    
  19.200000000000       12.419297301051    
  19.600000000000       10.032303125375    
  20.000000000000       0.0000000000000    
ZONE T= "Xw:     39.9300      Yw:     28.4100      Rw:    0.100000      Zwbot:     13.5000      Zwtop:     14.0000       Specie:  1 "
 0.40000000000000       0.0000000000000    
 0.80000000000000       0.0000000000000    
  1.2000000000000       0.0000000000000    
  1.6000000000000       0.0000000000000    
  2.0000000000000       0.0000000000000    
  2.4000000000000       0.0000000000000    
  2.8000000000000       0.0000000000000    
  3.2000000000000       0.0000000000000    
  3.6000000000000       0.0000000000000    
  4.0000000000000       0.0000000000000    
  4.4000000000000       0.0000000000000    
  4.8000000000000       0.0000000000000    
  5.2000000000000       0.0000000000000    
  5.6000000000000       0.0000000000000    
  6.0000000000000       0.0000000000000    
  6.4000000000000       0.0000000000000    
  6.8000000000000       0.0000000000000    
  7.2000000000000       0.0000000000000    
  7.6000000000000       0.0000000000000    
  8.0000000000000       0.0000000000000    
  8.4000000000000       0.0000000000000    
  8.8000000000000       0.0000000000000    
  9.2000000000000       0.0000000000000    
  9.6000000000000       0.0000000000000    
  10.000000000000       0.0000000000000    
  10.400000000000       0.0000000000000    
  10.800000000000       0.0000000000000    
  11.200000000000       2.5312290574294    
  11.600000000000       0.0000000000000    
  12.000000000000       0.0000000000000    
  12.400000000000       0.0000000000000    
  12.800000000000       0.0000000000000    
  13.200000000000       0.0000000000000    
  13.600000000000       0.0000000000000    
  14.000000000000       0.0000000000000    
  14.400000000000       2.5364513998346    
  14.800000000000       0.0000000000000    
  15.200000000000       2.5364513998346    
  15.600000000000       5.0552361581276    
  16.000000000000       2.5276180790638    
  16.400000000000       0.0000000000000    
  16.800000000000       0.0000000000000    
  17.200000000000       0.0000000000000    
  17.600000000000       7.5114592151560    
  18.000000000000       2.5287306945458    
  18.400000000000       0.0000000000000    
  18.800000000000       2.5287306945458    
  19.200000000000       7.5379245999785    
  19.600000000000       20.045305333257    
  20.000000000000       5.0563487736096    
ZONE T= "Xw:     39.8300      Yw:     28.4100      Rw:    0.100000      Zwbot:     10.6000      Zwtop:     11.2000       Specie:  1 "
 0.40000000000000       0.0000000000000    
 0.80000000000000       0.0000000000000    
  1.2000000000000       0.0000000000000    
  1.6000000000000       0.0000000000000    
  2.0000000000000       0.0000000000000    
  2.4000000000000       7.6335793002564    
  2.8000000000000       7.6335793002564    
  3.2000000000000       4.9683433380532    
  3.6000000000000       15.011003194550    
  4.0000000000000       17.540816035996    
  4.4000000000000       20.057045813121    
  4.8000000000000       20.110847634012    
  5.2000000000000       27.440390843604    
  5.6000000000000       22.614523986875    
  6.0000000000000       19.857361914021    
  6.4000000000000       19.989298507148    
  6.8000000000000       32.482840834202    
  7.2000000000000       39.878903674548    
  7.6000000000000       44.705708185619    
  8.0000000000000       32.260236569023    
  8.4000000000000       47.149816425602    
  8.8000000000000       67.464083379645    
  9.2000000000000       34.939297914595    
  9.6000000000000       32.395292963546    
  10.000000000000       47.481507575020    
  10.400000000000       50.134918759418    
  10.800000000000       37.458520026289    
  11.200000000000       20.021513296840    
  11.600000000000       15.041894216669    
  12.000000000000       17.506750406991    
  12.400000000000       27.383382165415    
  12.800000000000       12.539959382284    
  13.200000000000       19.914515752516    
  13.600000000000       14.954972954312    
  14.000000000000       15.001239614121    
  14.400000000000       12.549956196492    
  14.800000000000       12.590221836759    
  15.200000000000       7.5675351680965    
  15.600000000000       15.106193620782    
  16.000000000000       9.9777110960095    
  16.400000000000       20.008892116681    
  16.800000000000       30.091123925746    
  17.200000000000       25.087011627093    
  17.600000000000       15.053042268664    
  18.000000000000       10.036025320774    
  18.400000000000       10.061535773778    
  18.800000000000       5.0011205220225    
  19.200000000000       10.002241044045    
  19.600000000000       10.060582506991    
  20.000000000000       0.0000000000000    
ZONE T= "Xw:     39.8300      Yw:     28.4100      Rw:    0.100000      Zwbot:     7.60000      Zwtop:     8.30000       Specie:  1 "
 0.40000000000000       0.0000000000000    
 0.80000000000000       0.0000000000000    
  1.2000000000000       0.0000000000000    
  1.6000000000000       0.0000000000000    
  2.0000000000000       0.0000000000000    
  2.4000000000000       2.5188272672967    
  2.8000000000000       7.5564818018901    
  3.2000000000000       5.0376545345934    
  3.6000000000000       4.9381512990692    
  4.0000000000000       7.4339109742267    
  4.4000000000000       14.898221907437    
  4.8000000000000       9.9041356518675    
  5.2000000000000       2.5224199648600    
  5.6000000000000       7.5257628043597    
  6.0000000000000       9.9329988615607    
  6.4000000000000       14.953640321124    
  6.8000000000000       25.153006655578    
  7.2000000000000       12.539137915995    
  7.6000000000000       10.036515926506    
  8.0000000000000       15.110705362015    
  8.4000000000000       32.519217671414    
  8.8000000000000       35.025303652739    
  9.2000000000000       27.507035426990    
  9.6000000000000       40.285067771614    
  10.000000000000       32.553377487129    
  10.400000000000       52.557727898935    
  10.800000000000       37.453402763410    
  11.200000000000       10.007000688751    
  11.600000000000       32.437044084521    
  12.000000000000       32.452895117463    
  12.400000000000       39.747951405364    
  12.800000000000       29.838084286710    
  13.200000000000       42.505042175601    
  13.600000000000       54.677773113567    
  14.000000000000       17.418608050857    
  14.400000000000       42.247236087315    
  14.800000000000       47.376804955168    
  15.200000000000       9.9709345304807    
  15.600000000000       19.997262858564    
  16.000000000000       12.563007578523    
  16.400000000000       22.455308863966    
  16.800000000000       17.477157514240    
  17.200000000000       32.590129107486    
  17.600000000000       37.387933879834    
  18.000000000000       32.441609057095    
  18.400000000000       49.921041852214    
  18.800000000000       44.758013001739    
  19.200000000000       17.504388479237    
  19.600000000000       25.167349897490    
  20.000000000000       7.5531501812740    
ZONE T= "Xw:     39.8300      Yw:     28.5100      Rw:    0.100000      Zwbot:     4.50000      Zwtop:     5.00000       Specie:  1 "
 0.40000000000000       9.9380337842991    
 0.80000000000000       5.0041115624684    
  1.2000000000000       0.0000000000000    
  1.6000000000000       17.508367445689    
  2.0000000000000       22.501124628279    
  2.4000000000000       27.481393953189    
  2.8000000000000       27.579592988358    
  3.2000000000000       35.074389182442    
  3.6000000000000       57.482294964165    
  4.0000000000000       57.507332205805    
  4.4000000000000       65.004722175259    
  4.8000000000000       60.207140375033    
  5.2000000000000       75.123376817641    
  5.6000000000000       67.495282639197    
  6.0000000000000       42.718987188524    
  6.4000000000000       42.480531093251    
  6.8000000000000       45.061147444038    
  7.2000000000000       67.361962533425    
  7.6000000000000       34.870040795513    
  8.0000000000000       144.22762792656    
  8.4000000000000       144.36873176257    
  8.8000000000000       52.479571429371    
  9.2000000000000       22.561381045380    
  9.6000000000000       15.037394809998    
  10.000000000000       52.347053845074    
  10.400000000000       42.366815123252    
  10.800000000000       15.035098163974    
  11.200000000000       14.969482595885    
  11.600000000000       24.822354604440    
  12.000000000000       22.339745015095    
  12.400000000000       61.201112847692    
  12.800000000000       12.466273518894    
  13.200000000000       2.5048752362700    
  13.600000000000       7.5146257088099    
  14.000000000000       5.0355431271451    
  14.400000000000       2.5306678908751    
  14.800000000000       5.0023442334642    
  15.200000000000       7.4072269486037    
  15.600000000000       0.0000000000000    
  16.000000000000       0.0000000000000    
  16.400000000000       0.0000000000000    
  16.800000000000       0.0000000000000    
  17.200000000000       0.0000000000000    
  17.600000000000       0.0000000000000    
  18.000000000000       0.0000000000000    
  18.400000000000       0.0000000000000    
  18.800000000000       0.0000000000000    
  19.200000000000       0.0000000000000    
  19.600000000000       0.0000000000000    
  20.000000000000       0.0000000000000    
ZONE T= "Xw:     39.5300      Yw:     34.0100      Rw:    0.100000      Zwbot:     16.7000      Zwtop:     17.3000       Specie:  1 "
 0.40000000000000       9.9273290372491    
 0.80000000000000       2.5166304664089    
  1.2000000000000       7.5541141311263    
  1.6000000000000       0.0000000000000    
  2.0000000000000       2.5208531983084    
  2.4000000000000       17.633304192460    
  2.8000000000000       7.4292497905068    
  3.2000000000000       7.4802949850335    
  3.6000000000000       2.4818322593123    
  4.0000000000000       15.137705162408    
  4.4000000000000       2.5166304664089    
  4.8000000000000       7.5228412096876    
  5.2000000000000       20.076387798522    
  5.6000000000000       22.538449673865    
  6.0000000000000       14.942735745713    
  6.4000000000000       22.372129002339    
  6.8000000000000       17.557663827221    
  7.2000000000000       17.562551990877    
  7.6000000000000       7.4541680474039    
  8.0000000000000       44.847468135793    
  8.4000000000000       32.362368457935    
  8.8000000000000       14.941384798731    
  9.2000000000000       22.407834884869    
  9.6000000000000       29.956326573018    
  10.000000000000       24.978620614692    
  10.400000000000       29.856972247535    
  10.800000000000       15.012104785053    
  11.200000000000       12.549619731943    
  11.600000000000       32.529516561835    
  12.000000000000       19.909968954978    
  12.400000000000       27.448758730493    
  12.800000000000       22.355867389564    
  13.200000000000       12.513420719927    
  13.600000000000       22.716969880753    
  14.000000000000       15.096242548170    
  14.400000000000       7.4688578912623    
  14.800000000000       17.504282415004    
  15.200000000000       10.054241954409    
  15.600000000000       7.4274160271629    
  16.000000000000       17.470951915454    
  16.400000000000       17.489257697822    
  16.800000000000       25.017335204320    
  17.200000000000       5.0426816280418    
  17.600000000000       10.041695342527    
  18.000000000000       4.9875105383014    
  18.400000000000       15.110078951153    
  18.800000000000       10.017736424884    
  19.200000000000       4.9975068072634    
  19.600000000000       0.0000000000000    
  20.000000000000       5.0426816280418    
ZONE T= "Xw:     39.5300      Yw:     34.1100      Rw:    0.100000      Zwbot:     13.5000      Zwtop:     14.0000       Specie:  1 "
 0.40000000000000       0.0000000000000    
 0.80000000000000       0.0000000000000    
  1.2000000000000       0.0000000000000    
  1.6000000000000       0.0000000000000    
  2.0000000000000       0.0000000000000    
  2.4000000000000       9.9646666184682    
  2.8000000000000       0.0000000000000    
  3.2000000000000       0.0000000000000    
  3.6000000000000       0.0000000000000    
  4.0000000000000       0.0000000000000    
  4.4000000000000       2.5234110442761    
  4.8000000000000       0.0000000000000    
  5.2000000000000       5.0102045815882    
  5.6000000000000       12.529530541660    
  6.0000000000000       4.9957774533238    
  6.4000000000000       17.439080293139    
  6.8000000000000       12.485568972341    
  7.2000000000000       14.946595242266    
  7.6000000000000       12.478581400111    
  8.0000000000000       5.0547027694396    
  8.4000000000000       7.5702416174925    
  8.8000000000000       7.4795063270977    
  9.2000000000000       14.913227888697    
  9.6000000000000       12.489911251895    
  10.000000000000       5.0359271896117    
  10.400000000000       12.510030622132    
  10.800000000000       17.503226061879    
  11.200000000000       32.448253109040    
  11.600000000000       10.025632825433    
  12.000000000000       12.502217802115    
  12.400000000000       12.480274697907    
  12.800000000000       12.447044372304    
  13.200000000000       5.0018501055824    
  13.600000000000       4.9723448054344    
  14.000000000000       22.370037999554    
  14.400000000000       22.321417248872    
  14.800000000000       4.9723448054344    
  15.200000000000       2.4969419777512    
  15.600000000000       4.9976137008833    
  16.000000000000       10.033646257266    
  16.400000000000       15.086811576672    
  16.800000000000       9.9943642412983    
  17.200000000000       24.958071651727    
  17.600000000000       17.419292850679    
  18.000000000000       19.968706690205    
  18.400000000000       25.024590302435    
  18.800000000000       12.483758568444    
  19.200000000000       10.042282548122    
  19.600000000000       19.964691507465    
  20.000000000000       12.464116039054    
ZONE T= "Xw:     39.4300      Yw:     34.0100      Rw:    0.100000      Zwbot:     10.5000      Zwtop:     11.1000       Specie:  1 "
 0.40000000000000       10.097593002212    
 0.80000000000000       10.125701979055    
  1.2000000000000       20.084672916144    
  1.6000000000000       17.531163360555    
  2.0000000000000       15.004033503956    
  2.4000000000000       14.977328020234    
  2.8000000000000       10.043925396115    
  3.2000000000000       24.897579100002    
  3.6000000000000       17.502631529903    
  4.0000000000000       32.453025598727    
  4.4000000000000       29.916233447803    
  4.8000000000000       37.581286303954    
  5.2000000000000       44.991518944797    
  5.6000000000000       29.957030462070    
  6.0000000000000       27.395227749495    
  6.4000000000000       29.983766317650    
  6.8000000000000       19.892139241606    
  7.2000000000000       39.902065862532    
  7.6000000000000       24.818128816293    
  8.0000000000000       22.425383585508    
  8.4000000000000       49.887299502342    
  8.8000000000000       37.285781568256    
  9.2000000000000       15.055216097740    
  9.6000000000000       14.977990550827    
  10.000000000000       30.011659911936    