 TITLE="TECPLOT input file: Breakthrough Curves" 
 VARIABLES="Time" "Concentrations" 
ZONE T= "Xw:     39.9300      Yw:     22.4100      Rw:    0.100000      Zwbot:     16.5000      Zwtop:     17.0000       Specie:  1 "
  0.0000000000000       0.0000000000000    
  0.0000000000000       0.0000000000000    
  0.0000000000000       0.0000000000000    
  0.0000000000000       0.0000000000000    
  0.0000000000000       0.0000000000000    
  0.0000000000000       0.0000000000000    
  0.0000000000000       0.0000000000000    
  0.0000000000000       0.0000000000000    
  0.0000000000000       0.0000000000000    
  0.0000000000000       0.0000000000000    
  0.0000000000000       0.0000000000000    
  0.0000000000000       0.0000000000000    
  0.0000000000000       0.0000000000000    
  0.0000000000000       0.0000000000000    
  0.0000000000000       0.0000000000000    
  0.0000000000000       0.0000000000000    
  0.0000000000000       0.0000000000000    
  0.0000000000000       0.0000000000000    
  0.0000000000000       0.0000000000000    
  0.0000000000000       0.0000000000000    
  0.0000000000000       0.0000000000000    
  0.0000000000000       0.0000000000000    
  0.0000000000000       0.0000000000000    
  0.0000000000000       0.0000000000000    
  0.0000000000000       0.0000000000000    
  0.0000000000000       0.0000000000000    
  0.0000000000000       0.0000000000000    
  0.0000000000000       0.0000000000000    
  0.0000000000000       0.0000000000000    
  0.0000000000000       0.0000000000000    
  0.0000000000000       0.0000000000000    
  0.0000000000000       0.0000000000000    
  0.0000000000000       0.0000000000000    
  0.0000000000000       0.0000000000000    
  0.0000000000000       0.0000000000000    
  0.0000000000000       0.0000000000000    
  0.0000000000000       0.0000000000000    
  0.0000000000000       0.0000000000000    
  0.0000000000000       0.0000000000000    
  0.0000000000000       0.0000000000000    
  0.0000000000000       0.0000000000000    
  0.0000000000000       0.0000000000000    
  0.0000000000000       0.0000000000000    
  0.0000000000000       0.0000000000000    
  0.0000000000000       0.0000000000000    
  0.0000000000000       0.0000000000000    
  0.0000000000000       0.0000000000000    
  0.0000000000000       0.0000000000000    
  0.0000000000000       0.0000000000000    
  0.0000000000000       0.0000000000000    
ZONE T= "Xw:     39.9300      Yw:     22.4100      Rw:    0.100000      Zwbot:     13.5000      Zwtop:     14.0000       Specie:  1 "
 0.40000000000000       0.0000000000000    
 0.80000000000000       0.0000000000000    
  1.2000000000000       0.0000000000000    
  1.6000000000000       0.0000000000000    
  2.0000000000000       0.0000000000000    
  2.4000000000000       0.0000000000000    
  2.8000000000000       0.0000000000000    
  3.2000000000000       0.0000000000000    
  3.6000000000000       0.0000000000000    
  4.0000000000000       0.0000000000000    
  4.4000000000000       0.0000000000000    
  4.8000000000000       0.0000000000000    
  5.2000000000000       0.0000000000000    
  5.6000000000000       0.0000000000000    
  6.0000000000000       0.0000000000000    
  6.4000000000000       0.0000000000000    
  6.8000000000000       0.0000000000000    
  7.2000000000000       0.0000000000000    
  7.6000000000000       0.0000000000000    
  8.0000000000000       0.0000000000000    
  8.4000000000000       0.0000000000000    
  8.8000000000000       0.0000000000000    
  9.2000000000000       0.0000000000000    
  9.6000000000000       0.0000000000000    
  10.000000000000       0.0000000000000    
  10.400000000000       0.0000000000000    
  10.800000000000       0.0000000000000    
  11.200000000000       0.0000000000000    
  11.600000000000       0.0000000000000    
  12.000000000000       0.0000000000000    
  12.400000000000       0.0000000000000    
  12.800000000000       0.0000000000000    
  13.200000000000       0.0000000000000    
  13.600000000000       2.5095520334140    
  14.000000000000       2.4726538796487    
  14.400000000000       4.9453077592974    
  14.800000000000       0.0000000000000    
  15.200000000000       2.4726538796487    
  15.600000000000       0.0000000000000    
  16.000000000000       2.5095520334140    
  16.400000000000       2.4943754964826    
  16.800000000000       4.9938844260232    
  17.200000000000       0.0000000000000    
  17.600000000000       7.5286561002420    
  18.000000000000       20.021671757553    
  18.400000000000       12.534996719971    
  18.800000000000       5.0250175706377    
  19.200000000000       12.558137051409    
  19.600000000000       4.9989745500531    
  20.000000000000       10.031600879710    
ZONE T= "Xw:     39.9300      Yw:     22.3100      Rw:    0.100000      Zwbot:     10.5000      Zwtop:     11.0000       Specie:  1 "
 0.40000000000000       0.0000000000000    
 0.80000000000000       0.0000000000000    
  1.2000000000000       0.0000000000000    
  1.6000000000000       0.0000000000000    
  2.0000000000000       0.0000000000000    
  2.4000000000000       0.0000000000000    
  2.8000000000000       0.0000000000000    
  3.2000000000000       0.0000000000000    
  3.6000000000000       0.0000000000000    
  4.0000000000000       0.0000000000000    
  4.4000000000000       0.0000000000000    
  4.8000000000000       5.0077284524170    
  5.2000000000000       2.4918289138230    
  5.6000000000000       2.4969216201525    
  6.0000000000000       2.4853227265938    
  6.4000000000000       9.9912050998357    
  6.8000000000000       22.500622490480    
  7.2000000000000       15.013458968792    
  7.6000000000000       29.986338839676    
  8.0000000000000       39.918003976347    
  8.4000000000000       17.466771956217    
  8.8000000000000       34.954926465820    
  9.2000000000000       32.538927136561    
  9.6000000000000       42.415514956552    
  10.000000000000       37.289190405058    
  10.400000000000       37.254815710663    
  10.800000000000       22.434151908733    
  11.200000000000       27.474047100502    
  11.600000000000       42.443527277427    
  12.000000000000       27.509993309811    
  12.400000000000       32.464295496106    
  12.800000000000       22.517270474410    
  13.200000000000       22.455324117332    
  13.600000000000       7.4787009510861    
  14.000000000000       24.952183050326    
  14.400000000000       24.933950759395    
  14.800000000000       22.477558407885    
  15.200000000000       19.956727784281    
  15.600000000000       22.469436368451    
  16.000000000000       22.567940972008    
  16.400000000000       12.386883147286    
  16.800000000000       9.9734615824749    
  17.200000000000       5.0267702673964    
  17.600000000000       4.9947736237184    
  18.000000000000       4.9940316661026    
  18.400000000000       4.9913816454873    
  18.800000000000       2.4956908227436    
  19.200000000000       2.4956908227436    
  19.600000000000       2.4972132220356    
  20.000000000000       0.0000000000000    
ZONE T= "Xw:     40.0300      Yw:     22.4100      Rw:    0.100000      Zwbot:     7.60000      Zwtop:     8.10000       Specie:  1 "
 0.40000000000000       0.0000000000000    
 0.80000000000000       0.0000000000000    
  1.2000000000000       0.0000000000000    
  1.6000000000000       0.0000000000000    
  2.0000000000000       0.0000000000000    
  2.4000000000000       0.0000000000000    
  2.8000000000000       0.0000000000000    
  3.2000000000000       0.0000000000000    
  3.6000000000000       0.0000000000000    
  4.0000000000000       0.0000000000000    
  4.4000000000000       2.5106700903741    
  4.8000000000000       2.5106700903741    
  5.2000000000000       0.0000000000000    
  5.6000000000000       12.522773805048    
  6.0000000000000       9.9951453914359    
  6.4000000000000       4.9805174594152    
  6.8000000000000       17.490295554289    
  7.2000000000000       9.9651232904228    
  7.6000000000000       9.9774139588924    
  8.0000000000000       14.962325020929    
  8.4000000000000       27.480225017634    
  8.8000000000000       29.903879238788    
  9.2000000000000       59.913530962947    
  9.6000000000000       39.959378204213    
  10.000000000000       59.733486021358    
  10.400000000000       52.386086917761    
  10.800000000000       37.438192144712    
  11.200000000000       54.988726760377    
  11.600000000000       50.145904575029    
  12.000000000000       32.572290330594    
  12.400000000000       37.736428953483    
  12.800000000000       67.463043348140    
  13.200000000000       42.512038522535    
  13.600000000000       40.057554165764    
  14.000000000000       9.9762189117478    
  14.400000000000       7.5265874267379    
  14.800000000000       22.531114222693    
  15.200000000000       37.545411583853    
  15.600000000000       12.491765020759    
  16.000000000000       10.039026414029    
  16.400000000000       14.952622837082    
  16.800000000000       34.955804677738    
  17.200000000000       24.998577608583    
  17.600000000000       7.4740494793564    
  18.000000000000       7.4703438366364    
  18.400000000000       7.4883072563691    
  18.800000000000       4.9584427114601    
  19.200000000000       2.4982353311255    
  19.600000000000       0.0000000000000    
  20.000000000000       2.5082764817266    
ZONE T= "Xw:     39.9300      Yw:     22.4100      Rw:    0.100000      Zwbot:     4.50000      Zwtop:     5.00000       Specie:  1 "
 0.40000000000000       0.0000000000000    
 0.80000000000000       0.0000000000000    
  1.2000000000000       0.0000000000000    
  1.6000000000000       0.0000000000000    
  2.0000000000000       0.0000000000000    
  2.4000000000000       0.0000000000000    
  2.8000000000000       0.0000000000000    
  3.2000000000000       0.0000000000000    
  3.6000000000000       2.4922410697913    
  4.0000000000000       2.4922410697913    
  4.4000000000000       2.5171905766033    
  4.8000000000000       15.065643525910    
  5.2000000000000       15.014192337113    
  5.6000000000000       10.014909742731    
  6.0000000000000       7.5066093636026    
  6.4000000000000       7.5274041820902    
  6.8000000000000       27.451181966805    
  7.2000000000000       40.048031382887    
  7.6000000000000       19.988385816827    
  8.0000000000000       19.994410966456    
  8.4000000000000       44.959904875371    
  8.8000000000000       49.898314266601    
  9.2000000000000       57.358536961008    
  9.6000000000000       37.455157453718    
  10.000000000000       27.408041652059    
  10.400000000000       32.395044331165    
  10.800000000000       39.820738208213    
  11.200000000000       27.423220028053    
  11.600000000000       17.480205782079    
  12.000000000000       27.516783555422    
  12.400000000000       30.054196094810    
  12.800000000000       17.489279396822    
  13.200000000000       34.982710368527    
  13.600000000000       25.033184743125    
  14.000000000000       35.064869859745    
  14.400000000000       37.442678289862    
  14.800000000000       12.469920670960    
  15.200000000000       4.9804522407569    
  15.600000000000       12.495511029301    
  16.000000000000       17.497053452253    
  16.400000000000       20.013145820841    
  16.800000000000       27.436023875766    
  17.200000000000       19.971668336139    
  17.600000000000       25.099982559144    
  18.000000000000       17.477425031331    
  18.400000000000       4.9709272809352    
  18.800000000000       2.4982566124765    
  19.200000000000       2.4939137844714    
  19.600000000000       0.0000000000000    
  20.000000000000       0.0000000000000    
ZONE T= "Xw:     39.8300      Yw:     28.4100      Rw:    0.100000      Zwbot:     16.5000      Zwtop:     17.0000       Specie:  1 "
 0.40000000000000       0.0000000000000    
 0.80000000000000       0.0000000000000    
  1.2000000000000       0.0000000000000    
  1.6000000000000       0.0000000000000    
  2.0000000000000       0.0000000000000    
  2.4000000000000       0.0000000000000    
  2.8000000000000       0.0000000000000    
  3.2000000000000       0.0000000000000    
  3.6000000000000       0.0000000000000    
  4.0000000000000       0.0000000000000    
  4.4000000000000       0.0000000000000    
  4.8000000000000       0.0000000000000    
  5.2000000000000       0.0000000000000    
  5.6000000000000       0.0000000000000    
  6.0000000000000       7.6289578635220    
  6.4000000000000       10.052875415176    
  6.8000000000000       7.5195799535381    
  7.2000000000000       15.117073627044    
  7.6000000000000       0.0000000000000    
  8.0000000000000       2.5277137154342    
  8.4000000000000       12.553993477038    
  8.8000000000000       22.587101013458    
  9.2000000000000       20.015167752113    
  9.6000000000000       17.536032356605    
  10.000000000000       7.4695371695457    
  10.400000000000       7.5124188674675    
  10.800000000000       7.4846326636695    
  11.200000000000       5.0150468380060    
  11.600000000000       30.025710331317    
  12.000000000000       22.466103056087    
  12.400000000000       17.535037287653    
  12.800000000000       29.962849757197    
  13.200000000000       7.5385221466143    
  13.600000000000       7.5189963058948    
  14.000000000000       7.4382306243906    
  14.400000000000       14.975508547293    
  14.800000000000       9.9856293219467    
  15.200000000000       9.9351926981350    
  15.600000000000       7.5470013901916    
  16.000000000000       4.9979013949344    
  16.400000000000       12.510424098077    
  16.800000000000       14.916734388044    
  17.200000000000       27.527047373079    
  17.600000000000       17.591892827371    
  18.000000000000       22.587555738717    
  18.400000000000       12.547482364650    
  18.800000000000       14.901804716412    
  19.200000000000       17.698549194270    
  19.600000000000       22.559477648557    
  20.000000000000       4.9559621520551    
ZONE T= "Xw:     39.9300      Yw:     28.4100      Rw:    0.100000      Zwbot:     13.5000      Zwtop:     14.0000       Specie:  1 "
 0.40000000000000       0.0000000000000    
 0.80000000000000       0.0000000000000    
  1.2000000000000       0.0000000000000    
  1.6000000000000       0.0000000000000    
  2.0000000000000       0.0000000000000    
  2.4000000000000       0.0000000000000    
  2.8000000000000       0.0000000000000    
  3.2000000000000       0.0000000000000    
  3.6000000000000       0.0000000000000    
  4.0000000000000       0.0000000000000    
  4.4000000000000       0.0000000000000    
  4.8000000000000       0.0000000000000    
  5.2000000000000       0.0000000000000    
  5.6000000000000       0.0000000000000    
  6.0000000000000       0.0000000000000    
  6.4000000000000       0.0000000000000    
  6.8000000000000       0.0000000000000    
  7.2000000000000       0.0000000000000    
  7.6000000000000       0.0000000000000    
  8.0000000000000       0.0000000000000    
  8.4000000000000       0.0000000000000    
  8.8000000000000       0.0000000000000    
  9.2000000000000       0.0000000000000    
  9.6000000000000       0.0000000000000    
  10.000000000000       0.0000000000000    
  10.400000000000       0.0000000000000    
  10.800000000000       0.0000000000000    
  11.200000000000       0.0000000000000    
  11.600000000000       2.5396714468656    
  12.000000000000       2.5396714468656    
  12.400000000000       0.0000000000000    
  12.800000000000       0.0000000000000    
  13.200000000000       5.0793428937312    
  13.600000000000       0.0000000000000    
  14.000000000000       0.0000000000000    
  14.400000000000       0.0000000000000    
  14.800000000000       0.0000000000000    
  15.200000000000       9.9104366667357    
  15.600000000000       0.0000000000000    
  16.000000000000       0.0000000000000    
  16.400000000000       0.0000000000000    
  16.800000000000       0.0000000000000    
  17.200000000000       0.0000000000000    
  17.600000000000       0.0000000000000    
  18.000000000000       2.5268378044127    
  18.400000000000       2.5268378044127    
  18.800000000000       2.4905201295312    
  19.200000000000       14.948364033292    
  19.600000000000       7.4877031255715    
  20.000000000000       0.0000000000000    
ZONE T= "Xw:     39.8300      Yw:     28.4100      Rw:    0.100000      Zwbot:     10.6000      Zwtop:     11.2000       Specie:  1 "
 0.40000000000000       0.0000000000000    
 0.80000000000000       0.0000000000000    
  1.2000000000000       0.0000000000000    
  1.6000000000000       7.4427936086881    
  2.0000000000000       2.5253786309163    
  2.4000000000000       0.0000000000000    
  2.8000000000000       10.055831288015    
  3.2000000000000       9.9879258927496    
  3.6000000000000       12.487347455481    
  4.0000000000000       10.008940116068    
  4.4000000000000       12.551286000661    
  4.8000000000000       27.644682492942    
  5.2000000000000       15.063103252548    
  5.6000000000000       35.036447182135    
  6.0000000000000       42.287019989716    
  6.4000000000000       14.976415704663    
  6.8000000000000       34.985743941626    
  7.2000000000000       27.371759006101    
  7.6000000000000       42.691529745001    
  8.0000000000000       35.058752910446    
  8.4000000000000       17.548581110931    
  8.8000000000000       49.871250264945    
  9.2000000000000       44.990398049190    
  9.6000000000000       42.459476569645    
  10.000000000000       47.383977820379    
  10.400000000000       54.959026390657    
  10.800000000000       40.091941364298    
  11.200000000000       35.064028999054    
  11.600000000000       40.085360817923    
  12.000000000000       54.970714696084    
  12.400000000000       57.570636687238    
  12.800000000000       22.526477751966    
  13.200000000000       27.516828278408    
  13.600000000000       19.977822015986    
  14.000000000000       20.041848129616    
  14.400000000000       27.509389059104    
  14.800000000000       30.142916112989    
  15.200000000000       35.030246273869    
  15.600000000000       12.536882064052    
  16.000000000000       2.4813232048326    
  16.400000000000       14.847343417193    
  16.800000000000       7.4040979570284    
  17.200000000000       2.4680326523428    
  17.600000000000       17.526689748339    
  18.000000000000       22.516082101783    
  18.400000000000       9.9996420217445    
  18.800000000000       5.0658602406711    
  19.200000000000       25.008977966400    
  19.600000000000       22.508797086830    
  20.000000000000       2.4766226004081    
ZONE T= "Xw:     39.8300      Yw:     28.4100      Rw:    0.100000      Zwbot:     7.60000      Zwtop:     8.30000       Specie:  1 "
 0.40000000000000       0.0000000000000    
 0.80000000000000       0.0000000000000    
  1.2000000000000       0.0000000000000    
  1.6000000000000       0.0000000000000    
  2.0000000000000       0.0000000000000    
  2.4000000000000       2.4689276521169    
  2.8000000000000       7.4337569695409    
  3.2000000000000       2.4689276521169    
  3.6000000000000       20.080774321033    
  4.0000000000000       17.554169745204    
  4.4000000000000       22.556297192062    
  4.8000000000000       25.070824313586    
  5.2000000000000       32.672810416452    
  5.6000000000000       32.450481830178    
  6.0000000000000       19.947878995863    
  6.4000000000000       47.559373722998    
  6.8000000000000       35.034035120248    
  7.2000000000000       39.969098789445    
  7.6000000000000       19.942110555148    
  8.0000000000000       20.052262061995    
  8.4000000000000       22.577823557960    
  8.8000000000000       42.705147151964    
  9.2000000000000       44.972301859028    
  9.6000000000000       29.957762331279    
  10.000000000000       42.687443733572    
  10.400000000000       27.402069234380    
  10.800000000000       50.297360528203    
  11.200000000000       35.100786833199    
  11.600000000000       22.452764380433    
  12.000000000000       32.544144917289    
  12.400000000000       47.569130420614    
  12.800000000000       32.447787054144    
  13.200000000000       45.131689780441    
  13.600000000000       24.963184741483    
  14.000000000000       32.451486420011    
  14.400000000000       22.581371740902    
  14.800000000000       12.550341594921    
  15.200000000000       5.0368847840534    
  15.600000000000       32.653915665287    
  16.000000000000       32.623002888013    
  16.400000000000       19.963759304728    
  16.800000000000       25.166906579071    
  17.200000000000       29.884046050271    
  17.600000000000       47.603082583242    
  18.000000000000       22.620225124932    
  18.400000000000       27.712619092116    
  18.800000000000       25.162646545871    
  19.200000000000       20.200183907259    
  19.600000000000       5.0395916979426    
  20.000000000000       7.5647121154880    
ZONE T= "Xw:     39.8300      Yw:     28.5100      Rw:    0.100000      Zwbot:     4.50000      Zwtop:     5.00000       Specie:  1 "
 0.40000000000000       0.0000000000000    
 0.80000000000000       2.4848055224766    
  1.2000000000000       12.564896636616    
  1.6000000000000       12.563160828819    
  2.0000000000000       5.0286826448111    
  2.4000000000000       20.105252747801    
  2.8000000000000       22.517185392238    
  3.2000000000000       32.531321448688    
  3.6000000000000       32.651641282284    
  4.0000000000000       27.494840695150    
  4.4000000000000       20.049412584692    
  4.8000000000000       35.054223577021    
  5.2000000000000       40.180908877974    
  5.6000000000000       27.671036773506    
  6.0000000000000       27.448284545338    
  6.4000000000000       35.079528571265    
  6.8000000000000       27.450072318884    
  7.2000000000000       47.538418918273    
  7.6000000000000       42.387111250298    
  8.0000000000000       17.485981681423    
  8.4000000000000       27.593573691818    
  8.8000000000000       9.9478223537777    
  9.2000000000000       17.654410913325    
  9.6000000000000       22.655345660119    
  10.000000000000       15.066584223346    
  10.400000000000       5.0793428937312    
  10.800000000000       17.564110015972    
  11.200000000000       12.522725359374    
  11.600000000000       14.972662246047    
  12.000000000000       17.519325114176    
  12.400000000000       12.505253350185    
  12.800000000000       7.4289913576428    
  13.200000000000       14.985208042081    
  13.600000000000       14.944914531649    
  14.000000000000       15.002703967800    
  14.400000000000       17.454728866205    
  14.800000000000       0.0000000000000    
  15.200000000000       2.4809312028960    
  15.600000000000       2.5283809566858    
  16.000000000000       5.0567619133716    
  16.400000000000       0.0000000000000    
  16.800000000000       2.5283809566858    
  17.200000000000       0.0000000000000    
  17.600000000000       0.0000000000000    
  18.000000000000       0.0000000000000    
  18.400000000000       0.0000000000000    
  18.800000000000       0.0000000000000    
  19.200000000000       0.0000000000000    
  19.600000000000       0.0000000000000    
  20.000000000000       0.0000000000000    
ZONE T= "Xw:     39.5300      Yw:     34.0100      Rw:    0.100000      Zwbot:     16.7000      Zwtop:     17.3000       Specie:  1 "
 0.40000000000000       0.0000000000000    
 0.80000000000000       0.0000000000000    
  1.2000000000000       0.0000000000000    
  1.6000000000000       7.5512020938371    
  2.0000000000000       7.4658987997952    
  2.4000000000000       5.0189753229057    
  2.8000000000000       10.027995743333    
  3.2000000000000       4.9559316006805    
  3.6000000000000       14.938656284472    
  4.0000000000000       9.9337059169461    
  4.4000000000000       15.041993614999    
  4.8000000000000       20.144096468309    
  5.2000000000000       25.066046905692    
  5.6000000000000       15.030806677864    
  6.0000000000000       7.5060387104079    
  6.4000000000000       17.472110263054    
  6.8000000000000       17.432568794297    
  7.2000000000000       22.459778728172    
  7.6000000000000       14.995528186834    
  8.0000000000000       9.9813572190156    
  8.4000000000000       9.9306584752503    
  8.8000000000000       29.925264583364    
  9.2000000000000       32.471216184996    
  9.6000000000000       27.575685663150    
  10.000000000000       22.382915204040    
  10.400000000000       32.429511908282    
  10.800000000000       19.941012731545    
  11.200000000000       12.445547363949    
  11.600000000000       17.529888879343    
  12.000000000000       17.478212529949    
  12.400000000000       12.411061105252    
  12.800000000000       29.981283135191    
  13.200000000000       17.621973203302    
  13.600000000000       27.613012246403    
  14.000000000000       12.542718856357    
  14.400000000000       32.484275998866    
  14.800000000000       12.515229536952    
  15.200000000000       22.488942780977    
  15.600000000000       20.022665509916    
  16.000000000000       14.936793811512    
  16.400000000000       15.025767697342    
  16.800000000000       4.9731463626374    
  17.200000000000       9.9502828611984    
  17.600000000000       2.4709086987647    
  18.000000000000       17.390347786677    
  18.400000000000       4.9836704609342    
  18.800000000000       10.043619439916    
  19.200000000000       2.5284494745733    
  19.600000000000       2.5284494745733    
  20.000000000000       2.5012669528850    
ZONE T= "Xw:     39.5300      Yw:     34.1100      Rw:    0.100000      Zwbot:     13.5000      Zwtop:     14.0000       Specie:  1 "
 0.40000000000000       0.0000000000000    
 0.80000000000000       0.0000000000000    
  1.2000000000000       0.0000000000000    
  1.6000000000000       0.0000000000000    
  2.0000000000000       2.4865955157983    
  2.4000000000000       2.4865955157983    
  2.8000000000000       2.4709086987647    
  3.2000000000000       2.4709086987647    
  3.6000000000000       0.0000000000000    
  4.0000000000000       0.0000000000000    
  4.4000000000000       0.0000000000000    
  4.8000000000000       7.4284129133278    
  5.2000000000000       9.9339991527696    
  5.6000000000000       2.4933118656081    
  6.0000000000000       0.0000000000000    
  6.4000000000000       4.9866237312163    
  6.8000000000000       9.9113857295295    
  7.2000000000000       0.0000000000000    
  7.6000000000000       5.0060204163457    
  8.0000000000000       10.012040832691    
  8.4000000000000       5.0103153488893    
  8.8000000000000       12.562412340567    
  9.2000000000000       10.021225936070    
  9.6000000000000       12.526710393488    
  10.000000000000       30.007523955510    
  10.400000000000       4.9866237312163    
  10.800000000000       14.959625793004    
  11.200000000000       10.036350155409    
  11.600000000000       12.439088034934    
  12.000000000000       12.507459661806    
  12.400000000000       19.929900988532    
  12.800000000000       17.501534231743    
  13.200000000000       14.944960215225    
  13.600000000000       15.018949809829    
  14.000000000000       15.031145545600    
  14.400000000000       34.830633475714    
  14.800000000000       17.476718829697    
  15.200000000000       37.357499422590    
  15.600000000000       12.448783466582    
  16.000000000000       17.383081105146    
  16.400000000000       25.116954006370    
  16.800000000000       20.047213959621    
  17.200000000000       14.942640058905    
  17.600000000000       15.023092705301    
  18.000000000000       12.535526107122    
  18.400000000000       10.028756397294    
  18.800000000000       20.040262804946    
  19.200000000000       17.448005544627    
  19.600000000000       39.961950262439    
  20.000000000000       19.975074862899    
ZONE T= "Xw:     39.4300      Yw:     34.0100      Rw:    0.100000      Zwbot:     10.5000      Zwtop:     11.1000       Specie:  1 "
 0.40000000000000       7.5290103131285    
 0.80000000000000       5.0275722923225    
  1.2000000000000       12.556582605451    
  1.6000000000000       12.584041722982    
  2.0000000000000       17.607981465512    
  2.4000000000000       25.050490202625    
  2.8000000000000       22.536126614839    
  3.2000000000000       30.121430912474    
  3.6000000000000       29.990498168135    
  4.0000000000000       10.023064823127    
  4.4000000000000       25.081644413216    
  4.8000000000000       25.057936940611    
  5.2000000000000       44.962994267908    
  5.6000000000000       42.523463172549    
  6.0000000000000       22.542226064137    
  6.4000000000000       17.538582533776    
  6.8000000000000       27.457112125486    
  7.2000000000000       22.566492146504    
  7.6000000000000       22.336067017354    
  8.0000000000000       27.408509454730    
  8.4000000000000       17.389367939783    
  8.8000000000000       12.522127356291    
  9.2000000000000       40.062128307603    
  9.6000000000000       35.173293565100    
  10.000000000000       10.017788277289    