 TITLE="TECPLOT input file: Breakthrough Curves" 
 VARIABLES="Time" "Concentrations" 
ZONE T= "Xw:     39.9300      Yw:     22.4100      Rw:    0.100000      Zwbot:     16.5000      Zwtop:     17.0000       Specie:  1 "
  0.0000000000000       0.0000000000000    
  0.0000000000000       0.0000000000000    
  0.0000000000000       0.0000000000000    
  0.0000000000000       0.0000000000000    
  0.0000000000000       0.0000000000000    
  0.0000000000000       0.0000000000000    
  0.0000000000000       0.0000000000000    
  0.0000000000000       0.0000000000000    
  0.0000000000000       0.0000000000000    
  0.0000000000000       0.0000000000000    
  0.0000000000000       0.0000000000000    
  0.0000000000000       0.0000000000000    
  0.0000000000000       0.0000000000000    
  0.0000000000000       0.0000000000000    
  0.0000000000000       0.0000000000000    
  0.0000000000000       0.0000000000000    
  0.0000000000000       0.0000000000000    
  0.0000000000000       0.0000000000000    
  0.0000000000000       0.0000000000000    
  0.0000000000000       0.0000000000000    
  0.0000000000000       0.0000000000000    
  0.0000000000000       0.0000000000000    
  0.0000000000000       0.0000000000000    
  0.0000000000000       0.0000000000000    
  0.0000000000000       0.0000000000000    
  0.0000000000000       0.0000000000000    
  0.0000000000000       0.0000000000000    
  0.0000000000000       0.0000000000000    
  0.0000000000000       0.0000000000000    
  0.0000000000000       0.0000000000000    
  0.0000000000000       0.0000000000000    
  0.0000000000000       0.0000000000000    
  0.0000000000000       0.0000000000000    
  0.0000000000000       0.0000000000000    
  0.0000000000000       0.0000000000000    
  0.0000000000000       0.0000000000000    
  0.0000000000000       0.0000000000000    
  0.0000000000000       0.0000000000000    
  0.0000000000000       0.0000000000000    
  0.0000000000000       0.0000000000000    
  0.0000000000000       0.0000000000000    
  0.0000000000000       0.0000000000000    
  0.0000000000000       0.0000000000000    
  0.0000000000000       0.0000000000000    
  0.0000000000000       0.0000000000000    
  0.0000000000000       0.0000000000000    
  0.0000000000000       0.0000000000000    
  0.0000000000000       0.0000000000000    
  0.0000000000000       0.0000000000000    
  0.0000000000000       0.0000000000000    
ZONE T= "Xw:     39.9300      Yw:     22.4100      Rw:    0.100000      Zwbot:     13.5000      Zwtop:     14.0000       Specie:  1 "
 0.40000000000000       0.0000000000000    
 0.80000000000000       0.0000000000000    
  1.2000000000000       0.0000000000000    
  1.6000000000000       0.0000000000000    
  2.0000000000000       0.0000000000000    
  2.4000000000000       0.0000000000000    
  2.8000000000000       0.0000000000000    
  3.2000000000000       0.0000000000000    
  3.6000000000000       0.0000000000000    
  4.0000000000000       0.0000000000000    
  4.4000000000000       0.0000000000000    
  4.8000000000000       0.0000000000000    
  5.2000000000000       0.0000000000000    
  5.6000000000000       0.0000000000000    
  6.0000000000000       0.0000000000000    
  6.4000000000000       0.0000000000000    
  6.8000000000000       0.0000000000000    
  7.2000000000000       0.0000000000000    
  7.6000000000000       0.0000000000000    
  8.0000000000000       0.0000000000000    
  8.4000000000000       0.0000000000000    
  8.8000000000000       0.0000000000000    
  9.2000000000000       0.0000000000000    
  9.6000000000000       0.0000000000000    
  10.000000000000       0.0000000000000    
  10.400000000000       0.0000000000000    
  10.800000000000       0.0000000000000    
  11.200000000000       0.0000000000000    
  11.600000000000       0.0000000000000    
  12.000000000000       0.0000000000000    
  12.400000000000       0.0000000000000    
  12.800000000000       4.9833646873264    
  13.200000000000       0.0000000000000    
  13.600000000000       0.0000000000000    
  14.000000000000       0.0000000000000    
  14.400000000000       0.0000000000000    
  14.800000000000       0.0000000000000    
  15.200000000000       0.0000000000000    
  15.600000000000       0.0000000000000    
  16.000000000000       2.4916823436632    
  16.400000000000       0.0000000000000    
  16.800000000000       0.0000000000000    
  17.200000000000       2.4916823436632    
  17.600000000000       0.0000000000000    
  18.000000000000       7.4595085979142    
  18.400000000000       0.0000000000000    
  18.800000000000       9.9926709205674    
  19.200000000000       2.4916823436632    
  19.600000000000       4.9833095018937    
  20.000000000000       9.9617047443734    
ZONE T= "Xw:     39.9300      Yw:     22.3100      Rw:    0.100000      Zwbot:     10.5000      Zwtop:     11.0000       Specie:  1 "
 0.40000000000000       0.0000000000000    
 0.80000000000000       0.0000000000000    
  1.2000000000000       0.0000000000000    
  1.6000000000000       0.0000000000000    
  2.0000000000000       0.0000000000000    
  2.4000000000000       0.0000000000000    
  2.8000000000000       0.0000000000000    
  3.2000000000000       0.0000000000000    
  3.6000000000000       0.0000000000000    
  4.0000000000000       2.5092645541365    
  4.4000000000000       10.016218232391    
  4.8000000000000       2.4919884959442    
  5.2000000000000       7.4932415460248    
  5.6000000000000       9.9364283934812    
  6.0000000000000       10.010736830693    
  6.4000000000000       24.987599049495    
  6.8000000000000       20.000126412989    
  7.2000000000000       4.9970719203145    
  7.6000000000000       27.515562312536    
  8.0000000000000       24.991051727091    
  8.4000000000000       12.429457595530    
  8.8000000000000       27.462617288551    
  9.2000000000000       9.9402266497251    
  9.6000000000000       30.037661884251    
  10.000000000000       44.805350896452    
  10.400000000000       29.991311651417    
  10.800000000000       27.619398800182    
  11.200000000000       15.030255882827    
  11.600000000000       9.9854811047028    
  12.000000000000       27.519726802170    
  12.400000000000       17.516541648393    
  12.800000000000       30.009226739159    
  13.200000000000       27.420047652112    
  13.600000000000       22.503828820336    
  14.000000000000       32.399492410000    
  14.400000000000       27.423639234724    
  14.800000000000       29.987482025699    
  15.200000000000       27.386783679119    
  15.600000000000       7.4528385525183    
  16.000000000000       14.957414542804    
  16.400000000000       15.004601929408    
  16.800000000000       7.4975738694528    
  17.200000000000       14.970536069858    
  17.600000000000       20.012901423348    
  18.000000000000       24.976752879592    
  18.400000000000       17.435485045351    
  18.800000000000       2.5031867621217    
  19.200000000000       2.4690278226333    
  19.600000000000       5.0413357133112    
  20.000000000000       0.0000000000000    
ZONE T= "Xw:     40.0300      Yw:     22.4100      Rw:    0.100000      Zwbot:     7.60000      Zwtop:     8.10000       Specie:  1 "
 0.40000000000000       0.0000000000000    
 0.80000000000000       0.0000000000000    
  1.2000000000000       0.0000000000000    
  1.6000000000000       0.0000000000000    
  2.0000000000000       0.0000000000000    
  2.4000000000000       0.0000000000000    
  2.8000000000000       0.0000000000000    
  3.2000000000000       0.0000000000000    
  3.6000000000000       0.0000000000000    
  4.0000000000000       0.0000000000000    
  4.4000000000000       0.0000000000000    
  4.8000000000000       0.0000000000000    
  5.2000000000000       0.0000000000000    
  5.6000000000000       2.4869096602741    
  6.0000000000000       5.0215627432139    
  6.4000000000000       10.013439816887    
  6.8000000000000       12.482240087914    
  7.2000000000000       27.499487354758    
  7.6000000000000       17.526152519427    
  8.0000000000000       12.520614013705    
  8.4000000000000       27.457765956438    
  8.8000000000000       37.483919698797    
  9.2000000000000       39.898984221505    
  9.6000000000000       37.434846383599    
  10.000000000000       44.800623606132    
  10.400000000000       34.887796353691    
  10.800000000000       32.502535519108    
  11.200000000000       20.024703349799    
  11.600000000000       30.081786070663    
  12.000000000000       42.620237017788    
  12.400000000000       30.066695356511    
  12.800000000000       30.092246591750    
  13.200000000000       72.640250539674    
  13.600000000000       65.187162389378    
  14.000000000000       35.163544467155    
  14.400000000000       39.967719122506    
  14.800000000000       29.970924605016    
  15.200000000000       44.965959677131    
  15.600000000000       50.047538986119    
  16.000000000000       30.067782395909    
  16.400000000000       35.005184407606    
  16.800000000000       27.483679355857    
  17.200000000000       30.150485412564    
  17.600000000000       34.981449566311    
  18.000000000000       34.985215519723    
  18.400000000000       7.4396688211588    
  18.800000000000       17.455300462356    
  19.200000000000       14.930023799697    
  19.600000000000       4.9587128046306    
  20.000000000000       0.0000000000000    
ZONE T= "Xw:     39.9300      Yw:     22.4100      Rw:    0.100000      Zwbot:     4.50000      Zwtop:     5.00000       Specie:  1 "
 0.40000000000000       0.0000000000000    
 0.80000000000000       0.0000000000000    
  1.2000000000000       0.0000000000000    
  1.6000000000000       0.0000000000000    
  2.0000000000000       0.0000000000000    
  2.4000000000000       0.0000000000000    
  2.8000000000000       2.4869377502532    
  3.2000000000000       4.9738755005063    
  3.6000000000000       0.0000000000000    
  4.0000000000000       2.4790064123904    
  4.4000000000000       14.917193832895    
  4.8000000000000       4.9580128247808    
  5.2000000000000       15.001286583780    
  5.6000000000000       9.9615368923381    
  6.0000000000000       32.379071534589    
  6.4000000000000       20.078054654150    
  6.8000000000000       37.683807094005    
  7.2000000000000       40.028087741244    
  7.6000000000000       22.565825537637    
  8.0000000000000       17.561415203071    
  8.4000000000000       22.496883542429    
  8.8000000000000       27.594058730289    
  9.2000000000000       37.556167339861    
  9.6000000000000       39.957788195892    
  10.000000000000       30.062954570898    
  10.400000000000       22.507964639975    
  10.800000000000       30.092892219076    
  11.200000000000       39.960340419952    
  11.600000000000       42.549650397683    
  12.000000000000       52.632771588522    
  12.400000000000       30.130634068704    
  12.800000000000       32.592379676243    
  13.200000000000       14.965898996275    
  13.600000000000       27.427305666060    
  14.000000000000       29.832317136667    
  14.400000000000       19.970503338720    
  14.800000000000       12.429948507463    
  15.200000000000       7.5113666979041    
  15.600000000000       2.5043875370024    
  16.000000000000       4.9717601625845    
  16.400000000000       2.4933765159953    
  16.800000000000       10.009616455827    
  17.200000000000       0.0000000000000    
  17.600000000000       4.9933788096020    
  18.000000000000       0.0000000000000    
  18.400000000000       0.0000000000000    
  18.800000000000       0.0000000000000    
  19.200000000000       0.0000000000000    
  19.600000000000       5.0047204179832    
  20.000000000000       0.0000000000000    
ZONE T= "Xw:     39.8300      Yw:     28.4100      Rw:    0.100000      Zwbot:     16.5000      Zwtop:     17.0000       Specie:  1 "
 0.40000000000000       0.0000000000000    
 0.80000000000000       0.0000000000000    
  1.2000000000000       0.0000000000000    
  1.6000000000000       0.0000000000000    
  2.0000000000000       0.0000000000000    
  2.4000000000000       0.0000000000000    
  2.8000000000000       0.0000000000000    
  3.2000000000000       2.4756983292921    
  3.6000000000000       2.5218546374507    
  4.0000000000000       0.0000000000000    
  4.4000000000000       0.0000000000000    
  4.8000000000000       0.0000000000000    
  5.2000000000000       2.4753480194296    
  5.6000000000000       12.423203273844    
  6.0000000000000       17.499783243029    
  6.4000000000000       14.972498991601    
  6.8000000000000       9.9163841109467    
  7.2000000000000       17.414001299317    
  7.6000000000000       10.034545315936    
  8.0000000000000       17.388784402616    
  8.4000000000000       7.5121905467256    
  8.8000000000000       27.643395380687    
  9.2000000000000       12.476793370289    
  9.6000000000000       15.000906604532    
  10.000000000000       15.021395040448    
  10.400000000000       12.626408794687    
  10.800000000000       9.9685047804830    
  11.200000000000       12.519139148228    
  11.600000000000       2.4890392636269    
  12.000000000000       0.0000000000000    
  12.400000000000       10.018084660973    
  12.800000000000       17.487361780386    
  13.200000000000       14.957671418513    
  13.600000000000       19.978239168915    
  14.000000000000       25.011234217482    
  14.400000000000       25.061804661360    
  14.800000000000       27.462983810829    
  15.200000000000       22.457910133424    
  15.600000000000       20.019787634711    
  16.000000000000       22.534215491227    
  16.400000000000       27.577654408746    
  16.800000000000       22.565663053367    
  17.200000000000       19.883491779091    
  17.600000000000       20.019354494019    
  18.000000000000       24.794752217909    
  18.400000000000       14.869207632170    
  18.800000000000       12.396680738538    
  19.200000000000       24.984881848258    
  19.600000000000       19.879546872644    
  20.000000000000       7.5193502293495    
ZONE T= "Xw:     39.9300      Yw:     28.4100      Rw:    0.100000      Zwbot:     13.5000      Zwtop:     14.0000       Specie:  1 "
 0.40000000000000       0.0000000000000    
 0.80000000000000       0.0000000000000    
  1.2000000000000       0.0000000000000    
  1.6000000000000       0.0000000000000    
  2.0000000000000       0.0000000000000    
  2.4000000000000       0.0000000000000    
  2.8000000000000       0.0000000000000    
  3.2000000000000       0.0000000000000    
  3.6000000000000       0.0000000000000    
  4.0000000000000       0.0000000000000    
  4.4000000000000       0.0000000000000    
  4.8000000000000       0.0000000000000    
  5.2000000000000       0.0000000000000    
  5.6000000000000       0.0000000000000    
  6.0000000000000       0.0000000000000    
  6.4000000000000       0.0000000000000    
  6.8000000000000       0.0000000000000    
  7.2000000000000       0.0000000000000    
  7.6000000000000       0.0000000000000    
  8.0000000000000       0.0000000000000    
  8.4000000000000       0.0000000000000    
  8.8000000000000       0.0000000000000    
  9.2000000000000       0.0000000000000    
  9.6000000000000       0.0000000000000    
  10.000000000000       2.4758759725573    
  10.400000000000       2.4758759725573    
  10.800000000000       0.0000000000000    
  11.200000000000       0.0000000000000    
  11.600000000000       0.0000000000000    
  12.000000000000       0.0000000000000    
  12.400000000000       0.0000000000000    
  12.800000000000       0.0000000000000    
  13.200000000000       0.0000000000000    
  13.600000000000       0.0000000000000    
  14.000000000000       7.5699439937828    
  14.400000000000       5.0466293291885    
  14.800000000000       0.0000000000000    
  15.200000000000       0.0000000000000    
  15.600000000000       0.0000000000000    
  16.000000000000       0.0000000000000    
  16.400000000000       0.0000000000000    
  16.800000000000       2.4923299720125    
  17.200000000000       4.9846599440251    
  17.600000000000       0.0000000000000    
  18.000000000000       0.0000000000000    
  18.400000000000       4.9993426482331    
  18.800000000000       2.4923299720125    
  19.200000000000       4.9607348972330    
  19.600000000000       12.552907505521    
  20.000000000000       12.546411000544    
ZONE T= "Xw:     39.8300      Yw:     28.4100      Rw:    0.100000      Zwbot:     10.6000      Zwtop:     11.2000       Specie:  1 "
 0.40000000000000       0.0000000000000    
 0.80000000000000       0.0000000000000    
  1.2000000000000       0.0000000000000    
  1.6000000000000       2.4876606669110    
  2.0000000000000       0.0000000000000    
  2.4000000000000       17.674690884494    
  2.8000000000000       12.514383185426    
  3.2000000000000       5.0342343124490    
  3.6000000000000       12.501560598774    
  4.0000000000000       15.039702625607    
  4.4000000000000       22.503214054049    
  4.8000000000000       20.085328206325    
  5.2000000000000       47.487601520139    
  5.6000000000000       19.917565314918    
  6.0000000000000       19.890624310850    
  6.4000000000000       12.411412262292    
  6.8000000000000       19.898440890927    
  7.2000000000000       19.982643675360    
  7.6000000000000       25.072979672961    
  8.0000000000000       32.470217343505    
  8.4000000000000       5.0178543025838    
  8.8000000000000       10.003663126798    
  9.2000000000000       10.029147077017    
  9.6000000000000       9.9816073539724    
  10.000000000000       42.729214492427    
  10.400000000000       12.588145526508    
  10.800000000000       42.747718216098    
  11.200000000000       25.136288703609    
  11.600000000000       20.058065544346    
  12.000000000000       35.022882623469    
  12.400000000000       22.480290793592    
  12.800000000000       35.003864058027    
  13.200000000000       17.510651651833    
  13.600000000000       9.9670491765519    
  14.000000000000       24.853649934918    
  14.400000000000       20.066842777114    
  14.800000000000       19.922984257854    
  15.200000000000       17.357824219705    
  15.600000000000       5.0000268002478    
  16.000000000000       5.0117978684930    
  16.400000000000       5.0211584872792    
  16.800000000000       5.0024372497067    
  17.200000000000       2.4877052940022    
  17.600000000000       22.347088763827    
  18.000000000000       19.939130209050    
  18.400000000000       0.0000000000000    
  18.800000000000       2.4976036097827    
  19.200000000000       2.4976036097827    
  19.600000000000       9.9160844273463    
  20.000000000000       0.0000000000000    
ZONE T= "Xw:     39.8300      Yw:     28.4100      Rw:    0.100000      Zwbot:     7.60000      Zwtop:     8.30000       Specie:  1 "
 0.40000000000000       0.0000000000000    
 0.80000000000000       0.0000000000000    
  1.2000000000000       0.0000000000000    
  1.6000000000000       0.0000000000000    
  2.0000000000000       0.0000000000000    
  2.4000000000000       0.0000000000000    
  2.8000000000000       0.0000000000000    
  3.2000000000000       9.9719056300420    
  3.6000000000000       17.635493438666    
  4.0000000000000       7.5495078662278    
  4.4000000000000       10.047749066765    
  4.8000000000000       5.0557791871060    
  5.2000000000000       10.055559864445    
  5.6000000000000       30.010698515040    
  6.0000000000000       7.5075287217005    
  6.4000000000000       7.5467123969110    
  6.8000000000000       24.992256011153    
  7.2000000000000       29.883944381736    
  7.6000000000000       32.436093773301    
  8.0000000000000       32.625139302798    
  8.4000000000000       27.422742498253    
  8.8000000000000       45.145005854328    
  9.2000000000000       32.601680582540    
  9.6000000000000       22.495861609110    
  10.000000000000       39.892464100262    
  10.400000000000       17.368670259081    
  10.800000000000       20.043989559737    
  11.200000000000       19.902333137093    
  11.600000000000       24.958907349328    
  12.000000000000       29.866668520138    
  12.400000000000       40.023962553319    
  12.800000000000       34.870483811706    
  13.200000000000       20.047376556556    
  13.600000000000       17.517906096036    
  14.000000000000       49.816761820281    
  14.400000000000       22.312227382686    
  14.800000000000       49.928799772015    
  15.200000000000       15.017108399716    
  15.600000000000       35.137583295262    
  16.000000000000       27.653150292145    
  16.400000000000       15.019867565414    
  16.800000000000       27.524287967989    
  17.200000000000       12.474356797780    
  17.600000000000       27.450876775288    
  18.000000000000       32.367975039466    
  18.400000000000       22.472717080754    
  18.800000000000       25.016740222747    
  19.200000000000       50.136462914741    
  19.600000000000       24.850237499478    
  20.000000000000       5.0252516092387    
ZONE T= "Xw:     39.8300      Yw:     28.5100      Rw:    0.100000      Zwbot:     4.50000      Zwtop:     5.00000       Specie:  1 "
 0.40000000000000       17.439264813012    
 0.80000000000000       7.5367493851995    
  1.2000000000000       17.589356589372    
  1.6000000000000       12.466100295481    
  2.0000000000000       22.351073947045    
  2.4000000000000       32.501188540921    
  2.8000000000000       17.541716352816    
  3.2000000000000       22.519613597155    
  3.6000000000000       12.446552417047    
  4.0000000000000       27.519281281832    
  4.4000000000000       32.571742744268    
  4.8000000000000       24.952109513677    
  5.2000000000000       42.390996063277    
  5.6000000000000       54.815776495043    
  6.0000000000000       37.638848075398    
  6.4000000000000       42.520832312701    
  6.8000000000000       25.024632362247    
  7.2000000000000       27.601348254744    
  7.6000000000000       40.040399737420    
  8.0000000000000       37.536807457850    
  8.4000000000000       22.363266398792    
  8.8000000000000       32.409286815558    
  9.2000000000000       29.960457836441    
  9.6000000000000       37.359516463881    
  10.000000000000       47.242511386639    
  10.400000000000       29.968340380615    
  10.800000000000       24.967714069711    
  11.200000000000       34.978511396010    
  11.600000000000       22.406342016580    
  12.000000000000       22.343679413801    
  12.400000000000       15.023432040494    
  12.800000000000       24.878058336838    
  13.200000000000       14.940424385147    
  13.600000000000       7.4674221593016    
  14.000000000000       7.4720072803938    
  14.400000000000       12.600394677151    
  14.800000000000       9.9809591241190    
  15.200000000000       0.0000000000000    
  15.600000000000       4.9904795620595    
  16.000000000000       0.0000000000000    
  16.400000000000       0.0000000000000    
  16.800000000000       0.0000000000000    
  17.200000000000       0.0000000000000    
  17.600000000000       0.0000000000000    
  18.000000000000       0.0000000000000    
  18.400000000000       0.0000000000000    
  18.800000000000       0.0000000000000    
  19.200000000000       0.0000000000000    
  19.600000000000       0.0000000000000    
  20.000000000000       0.0000000000000    
ZONE T= "Xw:     39.5300      Yw:     34.0100      Rw:    0.100000      Zwbot:     16.7000      Zwtop:     17.3000       Specie:  1 "
 0.40000000000000       0.0000000000000    
 0.80000000000000       7.4824451983929    
  1.2000000000000       0.0000000000000    
  1.6000000000000       0.0000000000000    
  2.0000000000000       2.4941483994643    
  2.4000000000000       2.5026394816327    
  2.8000000000000       7.5446252662467    
  3.2000000000000       0.0000000000000    
  3.6000000000000       0.0000000000000    
  4.0000000000000       0.0000000000000    
  4.4000000000000       5.0338167792690    
  4.8000000000000       15.002678025209    
  5.2000000000000       9.9378433838930    
  5.6000000000000       12.483982538643    
  6.0000000000000       12.531820548451    
  6.4000000000000       30.108489035198    
  6.8000000000000       19.999166623408    
  7.2000000000000       20.055454183205    
  7.6000000000000       47.501103530702    
  8.0000000000000       17.477702618485    
  8.4000000000000       17.493502271549    
  8.8000000000000       25.019233070667    
  9.2000000000000       7.5039173073624    
  9.6000000000000       44.992340298836    
  10.000000000000       47.539855488120    
  10.400000000000       20.068497240994    
  10.800000000000       35.033884328936    
  11.200000000000       20.055517560116    
  11.600000000000       9.9538611663290    
  12.000000000000       12.444058893167    
  12.400000000000       12.539244008153    
  12.800000000000       25.060196380884    
  13.200000000000       15.046738587859    
  13.600000000000       17.540439989090    
  14.000000000000       14.981327968832    
  14.400000000000       9.9727553852126    
  14.800000000000       12.525685450626    
  15.200000000000       15.037885079734    
  15.600000000000       2.4734929487817    
  16.000000000000       2.5126429957387    
  16.400000000000       5.0252859914774    
  16.800000000000       2.5306645993290    
  17.200000000000       4.9603939876891    
  17.600000000000       2.4869010389074    
  18.000000000000       4.9979262004088    
  18.400000000000       12.474366030532    
  18.800000000000       10.027360473657    
  19.200000000000       7.4835162026862    
  19.600000000000       5.0072770468043    
  20.000000000000       0.0000000000000    
ZONE T= "Xw:     39.5300      Yw:     34.1100      Rw:    0.100000      Zwbot:     13.5000      Zwtop:     14.0000       Specie:  1 "
 0.40000000000000       0.0000000000000    
 0.80000000000000       0.0000000000000    
  1.2000000000000       0.0000000000000    
  1.6000000000000       0.0000000000000    
  2.0000000000000       0.0000000000000    
  2.4000000000000       2.4742830726167    
  2.8000000000000       0.0000000000000    
  3.2000000000000       2.5040680194383    
  3.6000000000000       0.0000000000000    
  4.0000000000000       0.0000000000000    
  4.4000000000000       5.0148473963357    
  4.8000000000000       0.0000000000000    
  5.2000000000000       4.9485661452335    
  5.6000000000000       4.9722824208797    
  6.0000000000000       20.021687147809    
  6.4000000000000       12.539609925419    
  6.8000000000000       7.4939980447890    
  7.2000000000000       15.009661544354    
  7.6000000000000       9.9881521228817    
  8.0000000000000       5.0088895040936    
  8.4000000000000       4.9850063847053    
  8.8000000000000       2.5051463899134    
  9.2000000000000       2.4841486911045    
  9.6000000000000       0.0000000000000    
  10.000000000000       9.9899442327282    
  10.400000000000       30.022509850260    
  10.800000000000       22.515014327599    
  11.200000000000       2.5044447520468    
  11.600000000000       22.458749263556    
  12.000000000000       4.9495404420969    
  12.400000000000       7.4845835117739    
  12.800000000000       5.0015473115119    
  13.200000000000       27.607145259557    
  13.600000000000       7.5313652737334    
  14.000000000000       17.492301301184    
  14.400000000000       27.505481977495    
  14.800000000000       22.475822815457    
  15.200000000000       14.972861935585    
  15.600000000000       9.9452754398413    
  16.000000000000       17.387317216200    
  16.400000000000       42.312286295024    
  16.800000000000       24.971527310042    
  17.200000000000       9.9284320877392    
  17.600000000000       14.909050294567    
  18.000000000000       22.599971004499    
  18.400000000000       22.534360000607    
  18.800000000000       12.432282219199    
  19.200000000000       24.923019185100    
  19.600000000000       17.611824808683    
  20.000000000000       5.0245960780310    
ZONE T= "Xw:     39.4300      Yw:     34.0100      Rw:    0.100000      Zwbot:     10.5000      Zwtop:     11.1000       Specie:  1 "
 0.40000000000000       7.4989031238067    
 0.80000000000000       0.0000000000000    
  1.2000000000000       9.9447244095524    
  1.6000000000000       12.515222097631    
  2.0000000000000       12.540884821902    
  2.4000000000000       15.028072975152    
  2.8000000000000       12.615906975670    
  3.2000000000000       12.612513667474    
  3.6000000000000       19.965151167483    
  4.0000000000000       22.411615950590    
  4.4000000000000       39.853268383826    
  4.8000000000000       27.495208517673    
  5.2000000000000       37.506745975069    
  5.6000000000000       34.975862486910    
  6.0000000000000       19.919094398366    
  6.4000000000000       22.404485146962    
  6.8000000000000       19.974362127134    
  7.2000000000000       14.972147953955    
  7.6000000000000       27.413314948909    
  8.0000000000000       27.413754723863    
  8.4000000000000       34.902763087719    
  8.8000000000000       25.102747243147    
  9.2000000000000       40.104796014066    
  9.6000000000000       37.675579095237    
  10.000000000000       17.538189267047    