 TITLE="TECPLOT input file: Breakthrough Curves" 
 VARIABLES="Time" "Concentrations" 
ZONE T= "Xw:     39.9300      Yw:     22.4100      Rw:    0.100000      Zwbot:     16.5000      Zwtop:     17.0000       Specie:  1 "
 0.40000000000000       0.0000000000000    
 0.80000000000000       0.0000000000000    
  1.2000000000000       0.0000000000000    
  1.6000000000000       0.0000000000000    
  2.0000000000000       0.0000000000000    
  2.4000000000000       0.0000000000000    
  2.8000000000000       0.0000000000000    
  3.2000000000000       0.0000000000000    
  3.6000000000000       0.0000000000000    
  4.0000000000000       0.0000000000000    
  4.4000000000000       0.0000000000000    
  4.8000000000000       0.0000000000000    
  5.2000000000000       0.0000000000000    
  5.6000000000000       0.0000000000000    
  6.0000000000000       0.0000000000000    
  6.4000000000000       0.0000000000000    
  6.8000000000000       0.0000000000000    
  7.2000000000000       0.0000000000000    
  7.6000000000000       0.0000000000000    
  8.0000000000000       0.0000000000000    
  8.4000000000000       0.0000000000000    
  8.8000000000000       0.0000000000000    
  9.2000000000000       0.0000000000000    
  9.6000000000000       0.0000000000000    
  10.000000000000       0.0000000000000    
  10.400000000000       0.0000000000000    
  10.800000000000       0.0000000000000    
  11.200000000000       0.0000000000000    
  11.600000000000       0.0000000000000    
  12.000000000000       0.0000000000000    
  12.400000000000       0.0000000000000    
  12.800000000000       0.0000000000000    
  13.200000000000       0.0000000000000    
  13.600000000000       0.0000000000000    
  14.000000000000       7.4994449243384    
  14.400000000000       0.0000000000000    
  14.800000000000       0.0000000000000    
  15.200000000000       2.4998149747795    
  15.600000000000       4.9801435756514    
  16.000000000000       0.0000000000000    
  16.400000000000       2.4998149747795    
  16.800000000000       2.4853997204744    
  17.200000000000       9.9848446448128    
  17.600000000000       0.0000000000000    
  18.000000000000       0.0000000000000    
  18.400000000000       7.4822994686454    
  18.800000000000       12.433612535687    
  19.200000000000       0.0000000000000    
  19.600000000000       0.0000000000000    
  20.000000000000       0.0000000000000    
ZONE T= "Xw:     39.9300      Yw:     22.4100      Rw:    0.100000      Zwbot:     13.5000      Zwtop:     14.0000       Specie:  1 "
 0.40000000000000       0.0000000000000    
 0.80000000000000       0.0000000000000    
  1.2000000000000       0.0000000000000    
  1.6000000000000       0.0000000000000    
  2.0000000000000       0.0000000000000    
  2.4000000000000       0.0000000000000    
  2.8000000000000       0.0000000000000    
  3.2000000000000       0.0000000000000    
  3.6000000000000       0.0000000000000    
  4.0000000000000       0.0000000000000    
  4.4000000000000       0.0000000000000    
  4.8000000000000       0.0000000000000    
  5.2000000000000       0.0000000000000    
  5.6000000000000       0.0000000000000    
  6.0000000000000       0.0000000000000    
  6.4000000000000       0.0000000000000    
  6.8000000000000       0.0000000000000    
  7.2000000000000       0.0000000000000    
  7.6000000000000       0.0000000000000    
  8.0000000000000       0.0000000000000    
  8.4000000000000       0.0000000000000    
  8.8000000000000       0.0000000000000    
  9.2000000000000       0.0000000000000    
  9.6000000000000       0.0000000000000    
  10.000000000000       0.0000000000000    
  10.400000000000       0.0000000000000    
  10.800000000000       0.0000000000000    
  11.200000000000       0.0000000000000    
  11.600000000000       0.0000000000000    
  12.000000000000       7.5351606503403    
  12.400000000000       0.0000000000000    
  12.800000000000       0.0000000000000    
  13.200000000000       0.0000000000000    
  13.600000000000       0.0000000000000    
  14.000000000000       2.5117202167801    
  14.400000000000       5.0144906965136    
  14.800000000000       5.0144906965136    
  15.200000000000       5.0144906965136    
  15.600000000000       0.0000000000000    
  16.000000000000       2.5117202167801    
  16.400000000000       0.0000000000000    
  16.800000000000       9.9880006492596    
  17.200000000000       4.9840448550998    
  17.600000000000       14.972045504359    
  18.000000000000       2.4775154651553    
  18.400000000000       9.9631820584964    
  18.800000000000       5.0322574012717    
  19.200000000000       4.9773304399348    
  19.600000000000       2.4775154651553    
  20.000000000000       2.4775154651553    
ZONE T= "Xw:     39.9300      Yw:     22.3100      Rw:    0.100000      Zwbot:     10.5000      Zwtop:     11.0000       Specie:  1 "
 0.40000000000000       0.0000000000000    
 0.80000000000000       0.0000000000000    
  1.2000000000000       0.0000000000000    
  1.6000000000000       0.0000000000000    
  2.0000000000000       0.0000000000000    
  2.4000000000000       0.0000000000000    
  2.8000000000000       0.0000000000000    
  3.2000000000000       0.0000000000000    
  3.6000000000000       2.5197625299980    
  4.0000000000000       5.0395250599961    
  4.4000000000000       7.5592875899941    
  4.8000000000000       0.0000000000000    
  5.2000000000000       0.0000000000000    
  5.6000000000000       4.9858260036021    
  6.0000000000000       15.030846650787    
  6.4000000000000       9.9909560341738    
  6.8000000000000       17.572089773651    
  7.2000000000000       15.036853963364    
  7.6000000000000       12.544996695192    
  8.0000000000000       17.558793251698    
  8.4000000000000       34.972342168935    
  8.8000000000000       29.916499695358    
  9.2000000000000       34.984890312592    
  9.6000000000000       42.405282681556    
  10.000000000000       37.441964517756    
  10.400000000000       37.474744828737    
  10.800000000000       42.358718536162    
  11.200000000000       39.949305601913    
  11.600000000000       34.990160098622    
  12.000000000000       59.783882600075    
  12.400000000000       32.401505429754    
  12.800000000000       42.462656404891    
  13.200000000000       17.418974848094    
  13.600000000000       44.837345854840    
  14.000000000000       42.325543256348    
  14.400000000000       32.397013212223    
  14.800000000000       15.039701865251    
  15.200000000000       17.514390560562    
  15.600000000000       12.492458556404    
  16.000000000000       14.987506156903    
  16.400000000000       12.478041042563    
  16.800000000000       12.491949494005    
  17.200000000000       9.9930250168099    
  17.600000000000       12.516122186076    
  18.000000000000       7.5420755620048    
  18.400000000000       5.0103358249653    
  18.800000000000       7.5142242309054    
  19.200000000000       7.5496781480510    
  19.600000000000       2.5190935780324    
  20.000000000000       5.0381871560648    
ZONE T= "Xw:     40.0300      Yw:     22.4100      Rw:    0.100000      Zwbot:     7.60000      Zwtop:     8.10000       Specie:  1 "
 0.40000000000000       0.0000000000000    
 0.80000000000000       0.0000000000000    
  1.2000000000000       0.0000000000000    
  1.6000000000000       0.0000000000000    
  2.0000000000000       0.0000000000000    
  2.4000000000000       0.0000000000000    
  2.8000000000000       0.0000000000000    
  3.2000000000000       0.0000000000000    
  3.6000000000000       0.0000000000000    
  4.0000000000000       0.0000000000000    
  4.4000000000000       0.0000000000000    
  4.8000000000000       0.0000000000000    
  5.2000000000000       7.5183907242418    
  5.6000000000000       2.4884174276060    
  6.0000000000000       2.5114909919862    
  6.4000000000000       15.037948262670    
  6.8000000000000       2.5190935780324    
  7.2000000000000       10.007758250681    
  7.6000000000000       9.9682907457588    
  8.0000000000000       15.040026389706    
  8.4000000000000       27.538206673555    
  8.8000000000000       20.023143397673    
  9.2000000000000       40.035148055921    
  9.6000000000000       55.017613633094    
  10.000000000000       60.123433013837    
  10.400000000000       64.972806310488    
  10.800000000000       72.335322061580    
  11.200000000000       60.076019950194    
  11.600000000000       82.579898290383    
  12.000000000000       72.626144277875    
  12.400000000000       62.371077325757    
  12.800000000000       52.364119652594    
  13.200000000000       29.967766130979    
  13.600000000000       42.519332695036    
  14.000000000000       42.438856124370    
  14.400000000000       37.420573478520    
  14.800000000000       37.400212539143    
  15.200000000000       37.378571265236    
  15.600000000000       19.911162372384    
  16.000000000000       14.922971826513    
  16.400000000000       22.478799709948    
  16.800000000000       22.553256679629    
  17.200000000000       37.448122313036    
  17.600000000000       12.539230420431    
  18.000000000000       10.014879681207    
  18.400000000000       2.4939392090480    
  18.800000000000       7.5285500766088    
  19.200000000000       20.072097159323    
  19.600000000000       5.0422204720104    
  20.000000000000       2.5211102360052    
ZONE T= "Xw:     39.9300      Yw:     22.4100      Rw:    0.100000      Zwbot:     4.50000      Zwtop:     5.00000       Specie:  1 "
 0.40000000000000       0.0000000000000    
 0.80000000000000       0.0000000000000    
  1.2000000000000       0.0000000000000    
  1.6000000000000       0.0000000000000    
  2.0000000000000       0.0000000000000    
  2.4000000000000       0.0000000000000    
  2.8000000000000       0.0000000000000    
  3.2000000000000       2.5289656251514    
  3.6000000000000       0.0000000000000    
  4.0000000000000       0.0000000000000    
  4.4000000000000       7.5196037395974    
  4.8000000000000       2.5159343497739    
  5.2000000000000       12.529605199188    
  5.6000000000000       17.463970966114    
  6.0000000000000       9.9732808017182    
  6.4000000000000       19.907414437740    
  6.8000000000000       9.9744478515817    
  7.2000000000000       22.518946080640    
  7.6000000000000       27.538166039119    
  8.0000000000000       14.963067039581    
  8.4000000000000       29.870736302939    
  8.8000000000000       37.454436367689    
  9.2000000000000       19.937957901692    
  9.6000000000000       37.464000422732    
  10.000000000000       62.376245388753    
  10.400000000000       32.320524993083    
  10.800000000000       40.022895190249    
  11.200000000000       67.414758431961    
  11.600000000000       35.083754021210    
  12.000000000000       37.562199099276    
  12.400000000000       45.150237278249    
  12.800000000000       52.515410102809    
  13.200000000000       67.484638658219    
  13.600000000000       57.524936068436    
  14.000000000000       39.982463711953    
  14.400000000000       4.9717936473047    
  14.800000000000       7.4551489826655    
  15.200000000000       14.945527045297    
  15.600000000000       14.992842654060    
  16.000000000000       10.058629894974    
  16.400000000000       10.038237247539    
  16.800000000000       7.4980700749193    
  17.200000000000       4.9708619976748    
  17.600000000000       2.4854309988374    
  18.000000000000       0.0000000000000    
  18.400000000000       2.4830664899757    
  18.800000000000       0.0000000000000    
  19.200000000000       0.0000000000000    
  19.600000000000       5.0038645028823    
  20.000000000000       0.0000000000000    
ZONE T= "Xw:     39.8300      Yw:     28.4100      Rw:    0.100000      Zwbot:     16.5000      Zwtop:     17.0000       Specie:  1 "
 0.40000000000000       0.0000000000000    
 0.80000000000000       0.0000000000000    
  1.2000000000000       0.0000000000000    
  1.6000000000000       0.0000000000000    
  2.0000000000000       0.0000000000000    
  2.4000000000000       0.0000000000000    
  2.8000000000000       0.0000000000000    
  3.2000000000000       2.5167804275134    
  3.6000000000000       0.0000000000000    
  4.0000000000000       4.9806760073907    
  4.4000000000000       2.4721890100017    
  4.8000000000000       0.0000000000000    
  5.2000000000000       10.041598322662    
  5.6000000000000       7.5248178951487    
  6.0000000000000       19.979221786165    
  6.4000000000000       20.021053441335    
  6.8000000000000       4.9819564518621    
  7.2000000000000       7.5094660252302    
  7.6000000000000       2.5097674418605    
  8.0000000000000       12.467506096107    
  8.4000000000000       7.5270012375086    
  8.8000000000000       22.506651530990    
  9.2000000000000       14.976517684530    
  9.6000000000000       0.0000000000000    
  10.000000000000       14.981367004981    
  10.400000000000       7.5293023255814    
  10.800000000000       10.028264612004    
  11.200000000000       22.556301376540    
  11.600000000000       2.4812883389775    
  12.000000000000       12.470313090399    
  12.400000000000       10.025422346509    
  12.800000000000       17.527915832489    
  13.200000000000       27.560686915680    
  13.600000000000       14.919039815913    
  14.000000000000       20.000384860742    
  14.400000000000       45.248707907487    
  14.800000000000       39.893923546214    
  15.200000000000       22.568633465818    
  15.600000000000       12.438499723920    
  16.000000000000       17.388163337837    
  16.400000000000       22.579777359364    
  16.800000000000       10.023835747224    
  17.200000000000       12.449754509050    
  17.600000000000       7.5036657153273    
  18.000000000000       14.958447416722    
  18.400000000000       12.452693481375    
  18.800000000000       10.045848168776    
  19.200000000000       4.9653924636590    
  19.600000000000       25.058337855969    
  20.000000000000       5.0125902008433    
ZONE T= "Xw:     39.9300      Yw:     28.4100      Rw:    0.100000      Zwbot:     13.5000      Zwtop:     14.0000       Specie:  1 "
 0.40000000000000       0.0000000000000    
 0.80000000000000       0.0000000000000    
  1.2000000000000       0.0000000000000    
  1.6000000000000       0.0000000000000    
  2.0000000000000       0.0000000000000    
  2.4000000000000       0.0000000000000    
  2.8000000000000       0.0000000000000    
  3.2000000000000       0.0000000000000    
  3.6000000000000       0.0000000000000    
  4.0000000000000       0.0000000000000    
  4.4000000000000       0.0000000000000    
  4.8000000000000       0.0000000000000    
  5.2000000000000       0.0000000000000    
  5.6000000000000       0.0000000000000    
  6.0000000000000       0.0000000000000    
  6.4000000000000       0.0000000000000    
  6.8000000000000       2.4844654697775    
  7.2000000000000       2.4844654697775    
  7.6000000000000       4.9689309395550    
  8.0000000000000       0.0000000000000    
  8.4000000000000       4.9689309395550    
  8.8000000000000       7.4533964093325    
  9.2000000000000       0.0000000000000    
  9.6000000000000       0.0000000000000    
  10.000000000000       0.0000000000000    
  10.400000000000       0.0000000000000    
  10.800000000000       0.0000000000000    
  11.200000000000       0.0000000000000    
  11.600000000000       7.4533964093325    
  12.000000000000       0.0000000000000    
  12.400000000000       0.0000000000000    
  12.800000000000       0.0000000000000    
  13.200000000000       0.0000000000000    
  13.600000000000       0.0000000000000    
  14.000000000000       0.0000000000000    
  14.400000000000       0.0000000000000    
  14.800000000000       0.0000000000000    
  15.200000000000       0.0000000000000    
  15.600000000000       0.0000000000000    
  16.000000000000       7.4567535264109    
  16.400000000000       2.4992243703742    
  16.800000000000       2.4992243703742    
  17.200000000000       0.0000000000000    
  17.600000000000       0.0000000000000    
  18.000000000000       0.0000000000000    
  18.400000000000       0.0000000000000    
  18.800000000000       0.0000000000000    
  19.200000000000       4.9984487407483    
  19.600000000000       2.4992243703742    
  20.000000000000       0.0000000000000    
ZONE T= "Xw:     39.8300      Yw:     28.4100      Rw:    0.100000      Zwbot:     10.6000      Zwtop:     11.2000       Specie:  1 "
 0.40000000000000       0.0000000000000    
 0.80000000000000       2.4919009837486    
  1.2000000000000       0.0000000000000    
  1.6000000000000       2.4749756616052    
  2.0000000000000       12.520877556213    
  2.4000000000000       17.551401245699    
  2.8000000000000       17.481269143694    
  3.2000000000000       15.085749157508    
  3.6000000000000       5.0722832057622    
  4.0000000000000       27.276540090643    
  4.4000000000000       14.892655504938    
  4.8000000000000       17.496146079106    
  5.2000000000000       20.027884384135    
  5.6000000000000       37.580377963288    
  6.0000000000000       40.040769305449    
  6.4000000000000       62.477052130227    
  6.8000000000000       30.085500516978    
  7.2000000000000       40.059249409913    
  7.6000000000000       40.127521219348    
  8.0000000000000       37.442868828821    
  8.4000000000000       22.438452976308    
  8.8000000000000       22.538234260638    
  9.2000000000000       24.896484215112    
  9.6000000000000       37.512359384397    
  10.000000000000       34.992668884313    
  10.400000000000       34.986771012930    
  10.800000000000       25.006942136029    
  11.200000000000       27.492800097235    
  11.600000000000       17.397944729776    
  12.000000000000       17.453504365114    
  12.400000000000       19.966093352582    
  12.800000000000       10.011808964089    
  13.200000000000       55.012163257040    
  13.600000000000       37.589291382585    
  14.000000000000       15.078286348065    
  14.400000000000       17.548830822771    
  14.800000000000       22.414803968358    
  15.200000000000       34.846580475207    
  15.600000000000       24.863877433096    
  16.000000000000       30.208247119633    
  16.400000000000       12.568584654372    
  16.800000000000       12.362261008921    
  17.200000000000       27.335964428170    
  17.600000000000       12.342028442744    
  18.000000000000       4.9747668437000    
  18.400000000000       4.9626192811716    
  18.800000000000       0.0000000000000    
  19.200000000000       0.0000000000000    
  19.600000000000       0.0000000000000    
  20.000000000000       0.0000000000000    
ZONE T= "Xw:     39.8300      Yw:     28.4100      Rw:    0.100000      Zwbot:     7.60000      Zwtop:     8.30000       Specie:  1 "
 0.40000000000000       0.0000000000000    
 0.80000000000000       0.0000000000000    
  1.2000000000000       0.0000000000000    
  1.6000000000000       0.0000000000000    
  2.0000000000000       2.5132737651332    
  2.4000000000000       2.4683978009391    
  2.8000000000000       4.9940005388961    
  3.2000000000000       9.9613040357266    
  3.6000000000000       15.004048560744    
  4.0000000000000       5.0388765030902    
  4.4000000000000       7.5319928189800    
  4.8000000000000       24.908379632730    
  5.2000000000000       27.591327672050    
  5.6000000000000       29.959350611467    
  6.0000000000000       17.483662507147    
  6.4000000000000       7.5223335440724    
  6.8000000000000       19.934827120962    
  7.2000000000000       14.956116651045    
  7.6000000000000       12.499243091300    
  8.0000000000000       37.392845525984    
  8.4000000000000       24.980888225529    
  8.8000000000000       47.488975170221    
  9.2000000000000       42.467420589291    
  9.6000000000000       34.874002187047    
  10.000000000000       39.881344047019    
  10.400000000000       39.787132087837    
  10.800000000000       39.831951460005    
  11.200000000000       24.872118897494    
  11.600000000000       57.251472377992    
  12.000000000000       55.019310248596    
  12.400000000000       14.995035435682    
  12.800000000000       27.476652485346    
  13.200000000000       37.599709305282    
  13.600000000000       35.168463561269    
  14.000000000000       17.529706475237    
  14.400000000000       22.406829058379    
  14.800000000000       30.086095065705    
  15.200000000000       27.372207052072    
  15.600000000000       14.951819407820    
  16.000000000000       17.498577196569    
  16.400000000000       27.705880188944    
  16.800000000000       17.606496278406    
  17.200000000000       20.063199655232    
  17.600000000000       29.938473957627    
  18.000000000000       5.0339403155862    
  18.400000000000       15.054541788199    
  18.800000000000       22.617900801778    
  19.200000000000       45.049557255404    
  19.600000000000       27.560420247432    
  20.000000000000       5.0156485778648    
ZONE T= "Xw:     39.8300      Yw:     28.5100      Rw:    0.100000      Zwbot:     4.50000      Zwtop:     5.00000       Specie:  1 "
 0.40000000000000       7.4730802444865    
 0.80000000000000       2.4712727882579    
  1.2000000000000       24.818656502449    
  1.6000000000000       14.948072498506    
  2.0000000000000       7.5237454623380    
  2.4000000000000       27.669185831918    
  2.8000000000000       17.447297679369    
  3.2000000000000       12.481080841302    
  3.6000000000000       54.953914791977    
  4.0000000000000       75.197480484219    
  4.4000000000000       55.226092653105    
  4.8000000000000       47.468214195923    
  5.2000000000000       52.516160602977    
  5.6000000000000       87.371224850723    
  6.0000000000000       62.739156175748    
  6.4000000000000       72.218973400815    
  6.8000000000000       45.167664755255    
  7.2000000000000       37.559871034543    
  7.6000000000000       40.057881980292    
  8.0000000000000       62.498406572926    
  8.4000000000000       65.025701966838    
  8.8000000000000       42.566670772817    
  9.2000000000000       42.434127411467    
  9.6000000000000       52.669968951593    
  10.000000000000       27.474377573144    
  10.400000000000       15.039469151333    
  10.800000000000       25.000122936568    
  11.200000000000       15.024525501640    
  11.600000000000       27.610233888440    
  12.000000000000       15.116694914024    
  12.400000000000       9.9628753952697    
  12.800000000000       17.436936605456    
  13.200000000000       20.001055403614    
  13.600000000000       22.311264315353    
  14.000000000000       7.4294770216440    
  14.400000000000       2.4732763076986    
  14.800000000000       2.5296309077472    
  15.200000000000       0.0000000000000    
  15.600000000000       0.0000000000000    
  16.000000000000       5.0592618154944    
  16.400000000000       0.0000000000000    
  16.800000000000       7.5888927232416    
  17.200000000000       0.0000000000000    
  17.600000000000       0.0000000000000    
  18.000000000000       4.9558815872006    
  18.400000000000       2.4779407936003    
  18.800000000000       0.0000000000000    
  19.200000000000       0.0000000000000    
  19.600000000000       0.0000000000000    
  20.000000000000       0.0000000000000    
ZONE T= "Xw:     39.5300      Yw:     34.0100      Rw:    0.100000      Zwbot:     16.7000      Zwtop:     17.3000       Specie:  1 "
 0.40000000000000       17.553378635779    
 0.80000000000000       15.145930621512    
  1.2000000000000       7.5091075680435    
  1.6000000000000       12.519361229221    
  2.0000000000000       2.4817250851636    
  2.4000000000000       15.054166577403    
  2.8000000000000       2.5210115766727    
  3.2000000000000       10.042078873560    
  3.6000000000000       7.5687180122960    
  4.0000000000000       17.604751835522    
  4.4000000000000       10.088817984788    
  4.8000000000000       17.589065482643    
  5.2000000000000       14.954952570470    
  5.6000000000000       25.082761782155    
  6.0000000000000       40.041207907139    
  6.4000000000000       17.496190217839    
  6.8000000000000       14.990550851447    
  7.2000000000000       37.418434184358    
  7.6000000000000       10.085336015704    
  8.0000000000000       27.543492009188    
  8.4000000000000       22.424731651469    
  8.8000000000000       34.992624587588    
  9.2000000000000       19.949807715283    
  9.6000000000000       24.995883209775    
  10.000000000000       27.398455736364    
  10.400000000000       9.9831982352972    
  10.800000000000       14.896644386556    
  11.200000000000       27.494553625555    
  11.600000000000       12.445463740771    
  12.000000000000       19.921407865268    
  12.400000000000       32.302579972101    
  12.800000000000       22.362719329134    
  13.200000000000       12.421743472594    
  13.600000000000       27.375132138007    
  14.000000000000       17.422123514813    
  14.400000000000       5.0062668174691    
  14.800000000000       32.512481811138    
  15.200000000000       12.361230793439    
  15.600000000000       17.361880015849    
  16.000000000000       17.441028762477    
  16.400000000000       17.419237555764    
  16.800000000000       17.549805758558    
  17.200000000000       12.471885313212    
  17.600000000000       7.4506946165917    
  18.000000000000       7.4665008389558    
  18.400000000000       12.470218406281    
  18.800000000000       12.484953016711    
  19.200000000000       12.507035280848    
  19.600000000000       9.9047388062500    
  20.000000000000       4.9532504521272    
ZONE T= "Xw:     39.5300      Yw:     34.1100      Rw:    0.100000      Zwbot:     13.5000      Zwtop:     14.0000       Specie:  1 "
 0.40000000000000       0.0000000000000    
 0.80000000000000       0.0000000000000    
  1.2000000000000       0.0000000000000    
  1.6000000000000       0.0000000000000    
  2.0000000000000       0.0000000000000    
  2.4000000000000       0.0000000000000    
  2.8000000000000       0.0000000000000    
  3.2000000000000       0.0000000000000    
  3.6000000000000       0.0000000000000    
  4.0000000000000       0.0000000000000    
  4.4000000000000       0.0000000000000    
  4.8000000000000       0.0000000000000    
  5.2000000000000       2.4996865840680    
  5.6000000000000       7.5014977347201    
  6.0000000000000       2.5080325710106    
  6.4000000000000       7.5086247304046    
  6.8000000000000       5.0415463787484    
  7.2000000000000       5.0288057603848    
  7.6000000000000       10.037308933263    
  8.0000000000000       15.088639617090    
  8.4000000000000       12.549779878870    
  8.8000000000000       12.558030453820    
  9.2000000000000       5.0125276669869    
  9.6000000000000       5.0213534261517    
  10.000000000000       12.536569682910    
  10.400000000000       22.619788721239    
  10.800000000000       15.062614210797    
  11.200000000000       12.531813900944    
  11.600000000000       12.492553763055    
  12.000000000000       22.551833136545    
  12.400000000000       17.475462990532    
  12.800000000000       12.585573128769    
  13.200000000000       14.940902424426    
  13.600000000000       39.957918586012    
  14.000000000000       17.449227032628    
  14.400000000000       17.438383702052    
  14.800000000000       17.474048402591    
  15.200000000000       10.027056580984    
  15.600000000000       14.966127137398    
  16.000000000000       37.462415114477    
  16.400000000000       20.074827763556    
  16.800000000000       10.039730539675    
  17.200000000000       32.538962151141    
  17.600000000000       9.9835205592849    
  18.000000000000       15.021446984771    
  18.400000000000       32.421589383720    
  18.800000000000       24.994903331745    
  19.200000000000       22.485349093985    
  19.600000000000       15.126010399675    
  20.000000000000       5.0496487703566    
ZONE T= "Xw:     39.4300      Yw:     34.0100      Rw:    0.100000      Zwbot:     10.5000      Zwtop:     11.1000       Specie:  1 "
 0.40000000000000       24.801347807249    
 0.80000000000000       7.4106039679806    
  1.2000000000000       2.4854096649480    
  1.6000000000000       10.061579522310    
  2.0000000000000       10.018017290132    
  2.4000000000000       20.019690995681    
  2.8000000000000       37.551989251355    
  3.2000000000000       12.505936026580    
  3.6000000000000       17.541767005227    
  4.0000000000000       25.084493647602    
  4.4000000000000       17.551106378167    
  4.8000000000000       22.407284417405    
  5.2000000000000       44.802918493205    
  5.6000000000000       37.523594063619    
  6.0000000000000       19.998740338806    
  6.4000000000000       49.962059075659    
  6.8000000000000       29.889140392326    
  7.2000000000000       39.918265449284    
  7.6000000000000       25.027320939551    
  8.0000000000000       24.916438388864    
  8.4000000000000       34.944594909825    
  8.8000000000000       22.578905973481    
  9.2000000000000       24.983762296140    
  9.6000000000000       30.052728904697    
  10.000000000000       42.368053784461    