 TITLE="TECPLOT input file: Breakthrough Curves" 
 VARIABLES="Time" "Concentrations" 
ZONE T= "Xw:     39.9300      Yw:     22.4100      Rw:    0.100000      Zwbot:     16.5000      Zwtop:     17.0000       Specie:  1 "
  0.0000000000000       0.0000000000000    
  0.0000000000000       0.0000000000000    
  0.0000000000000       0.0000000000000    
  0.0000000000000       0.0000000000000    
  0.0000000000000       0.0000000000000    
  0.0000000000000       0.0000000000000    
  0.0000000000000       0.0000000000000    
  0.0000000000000       0.0000000000000    
  0.0000000000000       0.0000000000000    
  0.0000000000000       0.0000000000000    
  0.0000000000000       0.0000000000000    
  0.0000000000000       0.0000000000000    
  0.0000000000000       0.0000000000000    
  0.0000000000000       0.0000000000000    
  0.0000000000000       0.0000000000000    
  0.0000000000000       0.0000000000000    
  0.0000000000000       0.0000000000000    
  0.0000000000000       0.0000000000000    
  0.0000000000000       0.0000000000000    
  0.0000000000000       0.0000000000000    
  0.0000000000000       0.0000000000000    
  0.0000000000000       0.0000000000000    
  0.0000000000000       0.0000000000000    
  0.0000000000000       0.0000000000000    
  0.0000000000000       0.0000000000000    
  0.0000000000000       0.0000000000000    
  0.0000000000000       0.0000000000000    
  0.0000000000000       0.0000000000000    
  0.0000000000000       0.0000000000000    
  0.0000000000000       0.0000000000000    
  0.0000000000000       0.0000000000000    
  0.0000000000000       0.0000000000000    
  0.0000000000000       0.0000000000000    
  0.0000000000000       0.0000000000000    
  0.0000000000000       0.0000000000000    
  0.0000000000000       0.0000000000000    
  0.0000000000000       0.0000000000000    
  0.0000000000000       0.0000000000000    
  0.0000000000000       0.0000000000000    
  0.0000000000000       0.0000000000000    
  0.0000000000000       0.0000000000000    
  0.0000000000000       0.0000000000000    
  0.0000000000000       0.0000000000000    
  0.0000000000000       0.0000000000000    
  0.0000000000000       0.0000000000000    
  0.0000000000000       0.0000000000000    
  0.0000000000000       0.0000000000000    
  0.0000000000000       0.0000000000000    
  0.0000000000000       0.0000000000000    
  0.0000000000000       0.0000000000000    
ZONE T= "Xw:     39.9300      Yw:     22.4100      Rw:    0.100000      Zwbot:     13.5000      Zwtop:     14.0000       Specie:  1 "
 0.40000000000000       0.0000000000000    
 0.80000000000000       0.0000000000000    
  1.2000000000000       0.0000000000000    
  1.6000000000000       0.0000000000000    
  2.0000000000000       0.0000000000000    
  2.4000000000000       0.0000000000000    
  2.8000000000000       0.0000000000000    
  3.2000000000000       0.0000000000000    
  3.6000000000000       0.0000000000000    
  4.0000000000000       0.0000000000000    
  4.4000000000000       0.0000000000000    
  4.8000000000000       0.0000000000000    
  5.2000000000000       0.0000000000000    
  5.6000000000000       0.0000000000000    
  6.0000000000000       0.0000000000000    
  6.4000000000000       0.0000000000000    
  6.8000000000000       0.0000000000000    
  7.2000000000000       0.0000000000000    
  7.6000000000000       0.0000000000000    
  8.0000000000000       0.0000000000000    
  8.4000000000000       0.0000000000000    
  8.8000000000000       0.0000000000000    
  9.2000000000000       0.0000000000000    
  9.6000000000000       0.0000000000000    
  10.000000000000       0.0000000000000    
  10.400000000000       0.0000000000000    
  10.800000000000       0.0000000000000    
  11.200000000000       2.5063956754065    
  11.600000000000       0.0000000000000    
  12.000000000000       5.0127913508130    
  12.400000000000       0.0000000000000    
  12.800000000000       0.0000000000000    
  13.200000000000       2.5063956754065    
  13.600000000000       4.9714600483649    
  14.000000000000       2.4857300241825    
  14.400000000000       0.0000000000000    
  14.800000000000       0.0000000000000    
  15.200000000000       0.0000000000000    
  15.600000000000       0.0000000000000    
  16.000000000000       2.4704161177816    
  16.400000000000       2.4857300241825    
  16.800000000000       2.4857300241825    
  17.200000000000       2.4898168261815    
  17.600000000000       0.0000000000000    
  18.000000000000       2.4857300241825    
  18.400000000000       19.945406277275    
  18.800000000000       4.9796336523630    
  19.200000000000       4.9892285656652    
  19.600000000000       7.4734829772319    
  20.000000000000       5.0010653362329    
ZONE T= "Xw:     39.9300      Yw:     22.3100      Rw:    0.100000      Zwbot:     10.5000      Zwtop:     11.0000       Specie:  1 "
 0.40000000000000       0.0000000000000    
 0.80000000000000       0.0000000000000    
  1.2000000000000       0.0000000000000    
  1.6000000000000       0.0000000000000    
  2.0000000000000       0.0000000000000    
  2.4000000000000       0.0000000000000    
  2.8000000000000       0.0000000000000    
  3.2000000000000       0.0000000000000    
  3.6000000000000       0.0000000000000    
  4.0000000000000       0.0000000000000    
  4.4000000000000       2.5112485100514    
  4.8000000000000       4.9792645671983    
  5.2000000000000       2.4896322835992    
  5.6000000000000       10.027174981983    
  6.0000000000000       12.488844011180    
  6.4000000000000       29.954361270948    
  6.8000000000000       27.556085613742    
  7.2000000000000       17.549325134086    
  7.6000000000000       17.542161122419    
  8.0000000000000       20.019856792101    
  8.4000000000000       22.544348926775    
  8.8000000000000       27.472134510320    
  9.2000000000000       34.958850505576    
  9.6000000000000       32.481570990054    
  10.000000000000       54.937836236278    
  10.400000000000       54.946058310478    
  10.800000000000       22.381811062515    
  11.200000000000       17.479717588274    
  11.600000000000       37.334111424422    
  12.000000000000       34.979793206816    
  12.400000000000       29.887776739345    
  12.800000000000       12.519847659962    
  13.200000000000       24.982270478329    
  13.600000000000       12.452042858171    
  14.000000000000       27.438916700023    
  14.400000000000       32.594334555735    
  14.800000000000       34.942878765434    
  15.200000000000       12.510679092908    
  15.600000000000       4.9834079434968    
  16.000000000000       12.526578165509    
  16.400000000000       15.042918749425    
  16.800000000000       10.008485507160    
  17.200000000000       2.5339766864501    
  17.600000000000       9.9539949406400    
  18.000000000000       0.0000000000000    
  18.400000000000       2.5339766864501    
  18.800000000000       0.0000000000000    
  19.200000000000       0.0000000000000    
  19.600000000000       2.4800283993647    
  20.000000000000       0.0000000000000    
ZONE T= "Xw:     40.0300      Yw:     22.4100      Rw:    0.100000      Zwbot:     7.60000      Zwtop:     8.10000       Specie:  1 "
 0.40000000000000       0.0000000000000    
 0.80000000000000       0.0000000000000    
  1.2000000000000       0.0000000000000    
  1.6000000000000       0.0000000000000    
  2.0000000000000       0.0000000000000    
  2.4000000000000       0.0000000000000    
  2.8000000000000       0.0000000000000    
  3.2000000000000       0.0000000000000    
  3.6000000000000       0.0000000000000    
  4.0000000000000       0.0000000000000    
  4.4000000000000       0.0000000000000    
  4.8000000000000       7.5324294664054    
  5.2000000000000       2.5066552043593    
  5.6000000000000       7.5031838107608    
  6.0000000000000       2.4898734020421    
  6.4000000000000       2.4898734020421    
  6.8000000000000       10.010050163026    
  7.2000000000000       10.037977786029    
  7.6000000000000       20.032950806804    
  8.0000000000000       7.4984158579263    
  8.4000000000000       24.896728098254    
  8.8000000000000       54.877430518677    
  9.2000000000000       24.906099004447    
  9.6000000000000       22.392600900914    
  10.000000000000       24.974835680281    
  10.400000000000       30.114956150416    
  10.800000000000       52.562748012977    
  11.200000000000       37.598553636898    
  11.600000000000       45.015923610099    
  12.000000000000       17.498964708056    
  12.400000000000       15.057090647726    
  12.800000000000       27.545623996155    
  13.200000000000       39.999434921541    
  13.600000000000       37.336250046588    
  14.000000000000       14.996988533237    
  14.400000000000       14.952125865921    
  14.800000000000       27.369670694637    
  15.200000000000       19.923006876260    
  15.600000000000       2.5017847469951    
  16.000000000000       12.563679786435    
  16.400000000000       17.466734688182    
  16.800000000000       19.966098340056    
  17.200000000000       5.0176483455160    
  17.600000000000       25.166407974326    
  18.000000000000       10.036968049094    
  18.400000000000       7.4996548800251    
  18.800000000000       7.5255541935709    
  19.200000000000       7.5125619282316    
  19.600000000000       2.5002847999872    
  20.000000000000       2.4877988637294    
ZONE T= "Xw:     39.9300      Yw:     22.4100      Rw:    0.100000      Zwbot:     4.50000      Zwtop:     5.00000       Specie:  1 "
 0.40000000000000       0.0000000000000    
 0.80000000000000       0.0000000000000    
  1.2000000000000       0.0000000000000    
  1.6000000000000       0.0000000000000    
  2.0000000000000       0.0000000000000    
  2.4000000000000       0.0000000000000    
  2.8000000000000       0.0000000000000    
  3.2000000000000       0.0000000000000    
  3.6000000000000       0.0000000000000    
  4.0000000000000       2.4909248719847    
  4.4000000000000       7.4963191297508    
  4.8000000000000       4.9978565498642    
  5.2000000000000       0.0000000000000    
  5.6000000000000       0.0000000000000    
  6.0000000000000       7.5098869459035    
  6.4000000000000       10.059512802915    
  6.8000000000000       7.4773372395022    
  7.2000000000000       22.491047042631    
  7.6000000000000       25.023100503540    
  8.0000000000000       32.531786933284    
  8.4000000000000       27.469551852815    
  8.8000000000000       25.015193540523    
  9.2000000000000       22.459349074263    
  9.6000000000000       47.540047410622    
  10.000000000000       32.437372864822    
  10.400000000000       35.129313791941    
  10.800000000000       37.656772123792    
  11.200000000000       20.055036865792    
  11.600000000000       17.478933537653    
  12.000000000000       25.051092311626    
  12.400000000000       20.099230576501    
  12.800000000000       14.952711769940    
  13.200000000000       20.034574381470    
  13.600000000000       15.036795210474    
  14.000000000000       15.034876563433    
  14.400000000000       24.876453799670    
  14.800000000000       7.4813069443433    
  15.200000000000       17.391256975773    
  15.600000000000       15.025424713627    
  16.000000000000       20.118353376739    
  16.400000000000       7.4841377129193    
  16.800000000000       7.4892775515197    
  17.200000000000       0.0000000000000    
  17.600000000000       7.4532029185409    
  18.000000000000       0.0000000000000    
  18.400000000000       2.4742404858120    
  18.800000000000       0.0000000000000    
  19.200000000000       0.0000000000000    
  19.600000000000       0.0000000000000    
  20.000000000000       2.4894812163645    
ZONE T= "Xw:     39.8300      Yw:     28.4100      Rw:    0.100000      Zwbot:     16.5000      Zwtop:     17.0000       Specie:  1 "
 0.40000000000000       0.0000000000000    
 0.80000000000000       0.0000000000000    
  1.2000000000000       0.0000000000000    
  1.6000000000000       0.0000000000000    
  2.0000000000000       0.0000000000000    
  2.4000000000000       0.0000000000000    
  2.8000000000000       2.4873175012417    
  3.2000000000000       0.0000000000000    
  3.6000000000000       0.0000000000000    
  4.0000000000000       0.0000000000000    
  4.4000000000000       2.5337755334231    
  4.8000000000000       7.5084105359065    
  5.2000000000000       0.0000000000000    
  5.6000000000000       5.0543860640679    
  6.0000000000000       7.5618315919343    
  6.4000000000000       15.055118487123    
  6.8000000000000       10.109268288837    
  7.2000000000000       7.5549946406309    
  7.6000000000000       4.9598833267555    
  8.0000000000000       12.547002382207    
  8.4000000000000       4.9713813131302    
  8.8000000000000       22.460796599843    
  9.2000000000000       17.551137325103    
  9.6000000000000       35.277007455659    
  10.000000000000       10.117762956103    
  10.400000000000       17.610309482680    
  10.800000000000       12.604490051746    
  11.200000000000       17.605846403440    
  11.600000000000       10.055918757522    
  12.000000000000       2.5139692398635    
  12.400000000000       7.4790841580664    
  12.800000000000       17.473253152179    
  13.200000000000       15.001832554095    
  13.600000000000       22.456248488520    
  14.000000000000       12.457406924737    
  14.400000000000       14.922996197039    
  14.800000000000       2.4853771878229    
  15.200000000000       7.4940300445791    
  15.600000000000       14.876672298255    
  16.000000000000       9.9585088008785    
  16.400000000000       29.821847529201    
  16.800000000000       29.995906244034    
  17.200000000000       22.511989837560    
  17.600000000000       20.016086360006    
  18.000000000000       22.458478298593    
  18.400000000000       27.430549766099    
  18.800000000000       24.959829914253    
  19.200000000000       34.799899329798    
  19.600000000000       32.638508136930    
  20.000000000000       7.5088422932072    
ZONE T= "Xw:     39.9300      Yw:     28.4100      Rw:    0.100000      Zwbot:     13.5000      Zwtop:     14.0000       Specie:  1 "
 0.40000000000000       0.0000000000000    
 0.80000000000000       0.0000000000000    
  1.2000000000000       0.0000000000000    
  1.6000000000000       0.0000000000000    
  2.0000000000000       0.0000000000000    
  2.4000000000000       0.0000000000000    
  2.8000000000000       0.0000000000000    
  3.2000000000000       0.0000000000000    
  3.6000000000000       0.0000000000000    
  4.0000000000000       0.0000000000000    
  4.4000000000000       0.0000000000000    
  4.8000000000000       0.0000000000000    
  5.2000000000000       0.0000000000000    
  5.6000000000000       0.0000000000000    
  6.0000000000000       0.0000000000000    
  6.4000000000000       0.0000000000000    
  6.8000000000000       2.5031735481862    
  7.2000000000000       0.0000000000000    
  7.6000000000000       0.0000000000000    
  8.0000000000000       0.0000000000000    
  8.4000000000000       0.0000000000000    
  8.8000000000000       0.0000000000000    
  9.2000000000000       0.0000000000000    
  9.6000000000000       0.0000000000000    
  10.000000000000       0.0000000000000    
  10.400000000000       0.0000000000000    
  10.800000000000       0.0000000000000    
  11.200000000000       0.0000000000000    
  11.600000000000       0.0000000000000    
  12.000000000000       0.0000000000000    
  12.400000000000       0.0000000000000    
  12.800000000000       9.9516126352403    
  13.200000000000       2.4839686473490    
  13.600000000000       7.4127377620461    
  14.000000000000       2.5203036003774    
  14.400000000000       4.9692782876200    
  14.800000000000       4.9967314005426    
  15.200000000000       4.9692782876200    
  15.600000000000       7.4676439878913    
  16.000000000000       4.9967314005426    
  16.400000000000       0.0000000000000    
  16.800000000000       7.4735199097182    
  17.200000000000       5.0111652300405    
  17.600000000000       7.4951338773894    
  18.000000000000       7.4752993110831    
  18.400000000000       9.9444324970669    
  18.800000000000       9.9228185293956    
  19.200000000000       2.4988041087142    
  19.600000000000       14.905800274867    
  20.000000000000       4.9960378054716    
ZONE T= "Xw:     39.8300      Yw:     28.4100      Rw:    0.100000      Zwbot:     10.6000      Zwtop:     11.2000       Specie:  1 "
 0.40000000000000       0.0000000000000    
 0.80000000000000       0.0000000000000    
  1.2000000000000       0.0000000000000    
  1.6000000000000       7.5213138679851    
  2.0000000000000       7.5278927393469    
  2.4000000000000       7.5478687946831    
  2.8000000000000       9.9919855785579    
  3.2000000000000       22.574047347724    
  3.6000000000000       17.590709019709    
  4.0000000000000       7.5565334226990    
  4.4000000000000       22.764631692514    
  4.8000000000000       22.692378351981    
  5.2000000000000       20.025196425389    
  5.6000000000000       22.693939312008    
  6.0000000000000       27.430778221707    
  6.4000000000000       42.556649467334    
  6.8000000000000       30.008922688100    
  7.2000000000000       19.978643552202    
  7.6000000000000       52.401061002109    
  8.0000000000000       62.512625968169    
  8.4000000000000       42.539622473920    
  8.8000000000000       19.992421466628    
  9.2000000000000       44.812237543857    
  9.6000000000000       37.521806822918    
  10.000000000000       15.003977282831    
  10.400000000000       45.037551362149    
  10.800000000000       39.845179970941    
  11.200000000000       32.465244346663    
  11.600000000000       32.442666123741    
  12.000000000000       40.110843625814    
  12.400000000000       27.494501040265    
  12.800000000000       15.037782367173    
  13.200000000000       37.421000208692    
  13.600000000000       24.997009503866    
  14.000000000000       7.4731266812895    
  14.400000000000       20.003984289732    
  14.800000000000       10.047190247365    
  15.200000000000       14.931764959388    
  15.600000000000       39.811089778186    
  16.000000000000       9.9861868029896    
  16.400000000000       12.467715077531    
  16.800000000000       12.376050341782    
  17.200000000000       20.033524258516    
  17.600000000000       7.5193951866820    
  18.000000000000       19.987924157929    
  18.400000000000       12.523327131355    
  18.800000000000       24.966739154501    
  19.200000000000       0.0000000000000    
  19.600000000000       7.5241767011291    
  20.000000000000       2.4815399096011    
ZONE T= "Xw:     39.8300      Yw:     28.4100      Rw:    0.100000      Zwbot:     7.60000      Zwtop:     8.30000       Specie:  1 "
 0.40000000000000       0.0000000000000    
 0.80000000000000       0.0000000000000    
  1.2000000000000       0.0000000000000    
  1.6000000000000       0.0000000000000    
  2.0000000000000       9.9416973220253    
  2.4000000000000       4.9412867817082    
  2.8000000000000       2.4706433908541    
  3.2000000000000       5.0503776801077    
  3.6000000000000       12.648835747315    
  4.0000000000000       5.0508063648932    
  4.4000000000000       17.680392346945    
  4.8000000000000       7.5457232077685    
  5.2000000000000       27.541182291051    
  5.6000000000000       30.208122817385    
  6.0000000000000       25.056197662544    
  6.4000000000000       17.590201374688    
  6.8000000000000       25.029685931395    
  7.2000000000000       20.014124454554    
  7.6000000000000       17.513868143977    
  8.0000000000000       30.167354735526    
  8.4000000000000       40.185074662896    
  8.8000000000000       47.506660726867    
  9.2000000000000       22.450179193424    
  9.6000000000000       32.439962565632    
  10.000000000000       22.596337006363    
  10.400000000000       27.664200091061    
  10.800000000000       17.534535971424    
  11.200000000000       12.558123070312    
  11.600000000000       42.374781933456    
  12.000000000000       17.477803452861    
  12.400000000000       20.048886539085    
  12.800000000000       17.638661024988    
  13.200000000000       22.603630142700    
  13.600000000000       22.476913607743    
  14.000000000000       37.452733221493    
  14.400000000000       37.565714866802    
  14.800000000000       22.568316348995    
  15.200000000000       47.571065354114    
  15.600000000000       30.061049237166    
  16.000000000000       40.126334366980    
  16.400000000000       32.569540895566    
  16.800000000000       40.122701845741    
  17.200000000000       49.982237547709    
  17.600000000000       44.956602216598    
  18.000000000000       47.531448487466    
  18.400000000000       27.630097421908    
  18.800000000000       39.837268824383    
  19.200000000000       9.9973142049439    
  19.600000000000       20.018969153411    
  20.000000000000       5.0515085728477    
ZONE T= "Xw:     39.8300      Yw:     28.5100      Rw:    0.100000      Zwbot:     4.50000      Zwtop:     5.00000       Specie:  1 "
 0.40000000000000       9.9798276953272    
 0.80000000000000       2.4873175012417    
  1.2000000000000       22.570533469571    
  1.6000000000000       27.620432289203    
  2.0000000000000       32.580405561464    
  2.4000000000000       52.244861612550    
  2.8000000000000       29.890115721972    
  3.2000000000000       32.458274429209    
  3.6000000000000       47.202609966870    
  4.0000000000000       24.812500696372    
  4.4000000000000       39.967907191133    
  4.8000000000000       49.992625173021    
  5.2000000000000       12.531106350922    
  5.6000000000000       39.939650165935    
  6.0000000000000       25.024354227253    
  6.4000000000000       20.062430805252    
  6.8000000000000       32.397797966065    
  7.2000000000000       49.819373986672    
  7.6000000000000       47.442180893526    
  8.0000000000000       30.032301540212    
  8.4000000000000       40.091480738335    
  8.8000000000000       29.929736649857    
  9.2000000000000       49.964103827214    
  9.6000000000000       34.907289609381    
  10.000000000000       27.494281474473    
  10.400000000000       34.818369709400    
  10.800000000000       34.999450694392    
  11.200000000000       24.946721025060    
  11.600000000000       9.9578220265963    
  12.000000000000       15.067196968304    
  12.400000000000       12.497515191622    
  12.800000000000       4.9702285701514    
  13.200000000000       7.4333807952554    
  13.600000000000       0.0000000000000    
  14.000000000000       0.0000000000000    
  14.400000000000       0.0000000000000    
  14.800000000000       0.0000000000000    
  15.200000000000       0.0000000000000    
  15.600000000000       0.0000000000000    
  16.000000000000       0.0000000000000    
  16.400000000000       0.0000000000000    
  16.800000000000       0.0000000000000    
  17.200000000000       0.0000000000000    
  17.600000000000       0.0000000000000    
  18.000000000000       0.0000000000000    
  18.400000000000       0.0000000000000    
  18.800000000000       0.0000000000000    
  19.200000000000       0.0000000000000    
  19.600000000000       0.0000000000000    
  20.000000000000       0.0000000000000    
ZONE T= "Xw:     39.5300      Yw:     34.0100      Rw:    0.100000      Zwbot:     16.7000      Zwtop:     17.3000       Specie:  1 "
 0.40000000000000       25.214925775673    
 0.80000000000000       10.070507248197    
  1.2000000000000       5.0407761462670    
  1.6000000000000       5.0297311019295    
  2.0000000000000       5.0518211906046    
  2.4000000000000       2.4715151104359    
  2.8000000000000       7.5445966528942    
  3.2000000000000       5.0297311019295    
  3.6000000000000       0.0000000000000    
  4.0000000000000       15.085061899610    
  4.4000000000000       27.366696683457    
  4.8000000000000       17.451908099057    
  5.2000000000000       9.8740829895785    
  5.6000000000000       44.874948427223    
  6.0000000000000       49.919457993540    
  6.4000000000000       32.556113696379    
  6.8000000000000       42.445359642933    
  7.2000000000000       17.496059400127    
  7.6000000000000       22.492922640762    
  8.0000000000000       27.506737500333    
  8.4000000000000       15.132662622126    
  8.8000000000000       30.091620741454    
  9.2000000000000       25.102989364561    
  9.6000000000000       22.626324823531    
  10.000000000000       22.657406483396    
  10.400000000000       20.102802234222    
  10.800000000000       45.172851418689    
  11.200000000000       20.070717980464    
  11.600000000000       40.177629186482    
  12.000000000000       30.154192926170    
  12.400000000000       12.594753781835    
  12.800000000000       30.219916881477    
  13.200000000000       32.544698657135    
  13.600000000000       22.609533501488    
  14.000000000000       12.521341294877    
  14.400000000000       20.081888593190    
  14.800000000000       15.036276629495    
  15.200000000000       12.548436456990    
  15.600000000000       7.5399731032569    
  16.000000000000       27.557645464573    
  16.400000000000       7.4682715055107    
  16.800000000000       9.9543054228387    
  17.200000000000       14.923852563929    
  17.600000000000       22.544565963161    
  18.000000000000       27.444911690502    
  18.400000000000       4.9901086210433    
  18.800000000000       7.4465778091075    
  19.200000000000       9.9052477145985    
  19.600000000000       5.0111063332640    
  20.000000000000       2.5006069374626    
ZONE T= "Xw:     39.5300      Yw:     34.1100      Rw:    0.100000      Zwbot:     13.5000      Zwtop:     14.0000       Specie:  1 "
 0.40000000000000       0.0000000000000    
 0.80000000000000       0.0000000000000    
  1.2000000000000       0.0000000000000    
  1.6000000000000       0.0000000000000    
  2.0000000000000       0.0000000000000    
  2.4000000000000       0.0000000000000    
  2.8000000000000       0.0000000000000    
  3.2000000000000       0.0000000000000    
  3.6000000000000       2.5130184911556    
  4.0000000000000       0.0000000000000    
  4.4000000000000       2.5130184911556    
  4.8000000000000       5.0204850719772    
  5.2000000000000       0.0000000000000    
  5.6000000000000       0.0000000000000    
  6.0000000000000       2.5074665808216    
  6.4000000000000       2.4865176808026    
  6.8000000000000       17.400206069635    
  7.2000000000000       4.9730353616051    
  7.6000000000000       4.9995361719582    
  8.0000000000000       0.0000000000000    
  8.4000000000000       5.0383666566366    
  8.8000000000000       2.5191833283183    
  9.2000000000000       4.9964181413214    
  9.6000000000000       17.608221925892    
  10.000000000000       15.063148333382    
  10.400000000000       20.067687518426    
  10.800000000000       25.076184967503    
  11.200000000000       22.608444526118    
  11.600000000000       17.580669952065    
  12.000000000000       17.523416779332    
  12.400000000000       27.584139417881    
  12.800000000000       22.617263921485    
  13.200000000000       30.058600647147    
  13.600000000000       17.589987228349    
  14.000000000000       20.139840366653    
  14.400000000000       32.700953488049    
  14.800000000000       10.073952714324    
  15.200000000000       17.447573148126    
  15.600000000000       22.643962041557    
  16.000000000000       29.934879891899    
  16.400000000000       22.538261237464    
  16.800000000000       27.539873849652    
  17.200000000000       12.609428471932    
  17.600000000000       15.035789527124    
  18.000000000000       7.5700434124186    
  18.400000000000       27.367426697155    
  18.800000000000       17.577534611207    
  19.200000000000       2.5270350972710    
  19.600000000000       17.488361165847    
  20.000000000000       17.484963682781    
ZONE T= "Xw:     39.4300      Yw:     34.0100      Rw:    0.100000      Zwbot:     10.5000      Zwtop:     11.1000       Specie:  1 "
 0.40000000000000       120.29988212107    
 0.80000000000000       17.686469557826    
  1.2000000000000       4.9933893047876    
  1.6000000000000       29.983301900810    
  2.0000000000000       20.051312600511    
  2.4000000000000       25.053032968225    
  2.8000000000000       12.519188343231    
  3.2000000000000       52.521184753035    
  3.6000000000000       30.042094417002    
  4.0000000000000       39.918157610073    
  4.4000000000000       40.013184364126    
  4.8000000000000       30.020291890560    
  5.2000000000000       30.019876489481    
  5.6000000000000       19.932657961312    
  6.0000000000000       19.912256326521    
  6.4000000000000       17.512467151165    
  6.8000000000000       24.850044138065    
  7.2000000000000       25.075955806675    
  7.6000000000000       19.919579777716    
  8.0000000000000       22.570405081887    
  8.4000000000000       17.523554388313    
  8.8000000000000       37.502600921742    
  9.2000000000000       25.182448044197    
  9.6000000000000       29.981157717827    
  10.000000000000       15.018165411108    